<?xml version="1.0" encoding="UTF-8"?>

<!-- generated on 2025-09-21 18:59:28 by Eclipse SUMO GUI Version 1.24.0
<sumoConfiguration xmlns:xsi="http://www.w3.org/2001/XMLSchema-instance" xsi:noNamespaceSchemaLocation="http://sumo.dlr.de/xsd/sumoConfiguration.xsd">

    <input>
        <net-file value="sumo_files/Moderate/osm.net.xml.gz"/>
        <route-files value="sumo_files/Moderate/osm_pt.rou.xml,sumo_files/Moderate/osm.bus.trips.xml,sumo_files/Moderate/osm.motorcycle.trips.xml,sumo_files/Moderate/osm.passenger.trips.xml,sumo_files/Moderate/osm.truck.trips.xml"/>
        <additional-files value="sumo_files/Moderate/osm.poly.xml.gz,sumo_files/Moderate/osm_stops.add.xml,sumo_files/Moderate/output.add.xml"/>
    </input>

    <output>
        <tripinfo-output value="sumo_files/Moderate/tripinfos.xml"/>
        <stop-output value="sumo_files/Moderate/stopinfos.xml"/>
        <statistic-output value="sumo_files/Moderate/stats.xml"/>
    </output>

    <time>
        <step-length value="1.0"/>
    </time>

    <processing>
        <ignore-route-errors value="true"/>
        <tls.actuated.jam-threshold value="30"/>
    </processing>

    <routing>
        <device.rerouting.adaptation-steps value="18"/>
        <device.rerouting.adaptation-interval value="10"/>
    </routing>

    <report>
        <verbose value="true"/>
        <no-warnings value="true"/>
        <duration-log.statistics value="true"/>
        <no-step-log value="true"/>
    </report>

    <traci_server>
        <remote-port value="53507"/>
    </traci_server>

    <gui_only>
        <gui-settings-file value="sumo_files/Moderate/osm.view.xml"/>
    </gui_only>

</sumoConfiguration>
-->

<meandata xmlns:xsi="http://www.w3.org/2001/XMLSchema-instance" xsi:noNamespaceSchemaLocation="http://sumo.dlr.de/xsd/meandata_file.xsd">
    <interval begin="0.00" end="3600.00" id="wizard_example">
        <edge id="-1091258062" sampledSeconds="7.05" traveltime="6.90" overlapTraveltime="7.54" density="0.03" laneDensity="0.03" occupancy="0.01" waitingTime="0.00" timeLoss="0.82" speed="10.31" speedRelative="0.74" departed="1" arrived="0" entered="0" left="1" laneChangedFrom="0" laneChangedTo="0"/>
        <edge id="-1091258063" sampledSeconds="12.73" traveltime="6.30" overlapTraveltime="6.67" density="0.04" laneDensity="0.04" occupancy="0.02" waitingTime="0.00" timeLoss="0.95" speed="12.39" speedRelative="0.89" departed="2" arrived="0" entered="0" left="2" laneChangedFrom="0" laneChangedTo="0"/>
        <edge id="-1104594356" sampledSeconds="0.00" departed="0" arrived="0" entered="0" left="0" laneChangedFrom="0" laneChangedTo="0"/>
        <edge id="-1107662879" sampledSeconds="2090.34" traveltime="19.83" overlapTraveltime="21.53" density="14.36" laneDensity="14.36" occupancy="6.89" waitingTime="90.00" timeLoss="616.37" speed="2.13" speedRelative="0.77" departed="10" arrived="8" entered="90" left="90" laneChangedFrom="0" laneChangedTo="0"/>
        <edge id="-1120729741" sampledSeconds="0.00" departed="0" arrived="0" entered="0" left="0" laneChangedFrom="0" laneChangedTo="0"/>
        <edge id="-1121147900#0" sampledSeconds="0.00" departed="0" arrived="0" entered="0" left="0" laneChangedFrom="0" laneChangedTo="0"/>
        <edge id="-1121147900#1" sampledSeconds="0.00" departed="0" arrived="0" entered="0" left="0" laneChangedFrom="0" laneChangedTo="0"/>
        <edge id="-1121147901" sampledSeconds="0.00" departed="0" arrived="0" entered="0" left="0" laneChangedFrom="0" laneChangedTo="0"/>
        <edge id="-1121687688" sampledSeconds="745.93" traveltime="10.84" overlapTraveltime="11.55" density="1.58" laneDensity="1.58" occupancy="0.88" waitingTime="0.00" timeLoss="97.83" speed="11.84" speedRelative="0.85" departed="5" arrived="5" entered="60" left="60" laneChangedFrom="0" laneChangedTo="0"/>
        <edge id="-1122104213" sampledSeconds="61.07" traveltime="11.60" overlapTraveltime="14.11" density="0.29" laneDensity="0.29" occupancy="0.31" waitingTime="0.00" timeLoss="7.38" speed="4.99" speedRelative="0.90" departed="1" arrived="4" entered="4" left="1" laneChangedFrom="0" laneChangedTo="0"/>
        <edge id="-1124140020" sampledSeconds="0.00" departed="0" arrived="0" entered="0" left="0" laneChangedFrom="0" laneChangedTo="0"/>
        <edge id="-1126732421" sampledSeconds="0.00" departed="0" arrived="0" entered="0" left="0" laneChangedFrom="0" laneChangedTo="0"/>
        <edge id="-1126732422" sampledSeconds="0.00" departed="0" arrived="0" entered="0" left="0" laneChangedFrom="0" laneChangedTo="0"/>
        <edge id="-1126732432#0" sampledSeconds="0.00" departed="0" arrived="0" entered="0" left="0" laneChangedFrom="0" laneChangedTo="0"/>
        <edge id="-1126732432#1" sampledSeconds="0.00" departed="0" arrived="0" entered="0" left="0" laneChangedFrom="0" laneChangedTo="0"/>
        <edge id="-1126732432#2" sampledSeconds="0.00" departed="0" arrived="0" entered="0" left="0" laneChangedFrom="0" laneChangedTo="0"/>
        <edge id="-1126732432#3" sampledSeconds="0.00" departed="0" arrived="0" entered="0" left="0" laneChangedFrom="0" laneChangedTo="0"/>
        <edge id="-1126750040" sampledSeconds="0.00" departed="0" arrived="0" entered="0" left="0" laneChangedFrom="0" laneChangedTo="0"/>
        <edge id="-1126750041#0" sampledSeconds="73.73" traveltime="0.05" overlapTraveltime="2.14" density="204.80" laneDensity="204.80" occupancy="2.01" waitingTime="0.00" timeLoss="54.09" speed="3.16" speedRelative="1.14" departed="6" arrived="5" entered="42" left="43" laneChangedFrom="0" laneChangedTo="0"/>
        <edge id="-1126750041#1" sampledSeconds="1596.15" traveltime="36.51" overlapTraveltime="38.79" density="5.90" laneDensity="5.90" occupancy="2.75" waitingTime="4.00" timeLoss="390.10" speed="2.06" speedRelative="0.74" departed="21" arrived="0" entered="22" left="42" laneChangedFrom="0" laneChangedTo="0"/>
        <edge id="-1126750042" sampledSeconds="436.04" traveltime="7.33" overlapTraveltime="9.41" density="1.58" laneDensity="1.58" occupancy="0.73" waitingTime="0.00" timeLoss="85.66" speed="8.72" speedRelative="0.63" departed="3" arrived="6" entered="45" left="40" laneChangedFrom="0" laneChangedTo="0"/>
        <edge id="-1176129290" sampledSeconds="0.00" departed="0" arrived="0" entered="0" left="0" laneChangedFrom="0" laneChangedTo="0"/>
        <edge id="-1177177536#0" sampledSeconds="235.50" traveltime="2.16" overlapTraveltime="3.11" density="4.72" laneDensity="4.72" occupancy="1.84" waitingTime="4.00" timeLoss="91.73" speed="6.15" speedRelative="0.44" departed="7" arrived="11" entered="73" left="69" laneChangedFrom="0" laneChangedTo="0"/>
        <edge id="-1177177536#1" sampledSeconds="118.37" traveltime="2.36" overlapTraveltime="2.91" density="1.66" laneDensity="1.66" occupancy="0.67" waitingTime="0.00" timeLoss="43.44" speed="8.68" speedRelative="0.62" departed="28" arrived="0" entered="19" left="47" laneChangedFrom="0" laneChangedTo="0"/>
        <edge id="-1177178388" sampledSeconds="0.00" departed="0" arrived="0" entered="0" left="0" laneChangedFrom="0" laneChangedTo="0"/>
        <edge id="-1187806250" sampledSeconds="53.66" traveltime="2.19" overlapTraveltime="3.33" density="1.22" laneDensity="1.22" occupancy="0.46" waitingTime="3.00" timeLoss="26.88" speed="5.29" speedRelative="0.38" departed="17" arrived="0" entered="4" left="21" laneChangedFrom="0" laneChangedTo="0"/>
        <edge id="-1187815339" sampledSeconds="15.07" traveltime="7.50" overlapTraveltime="7.76" density="0.05" laneDensity="0.05" occupancy="0.01" waitingTime="0.00" timeLoss="3.20" speed="10.19" speedRelative="0.73" departed="2" arrived="0" entered="0" left="2" laneChangedFrom="0" laneChangedTo="0"/>
        <edge id="-1189813847" sampledSeconds="231.32" traveltime="5.36" overlapTraveltime="6.12" density="1.29" laneDensity="1.29" occupancy="0.49" waitingTime="16.00" timeLoss="62.85" speed="8.79" speedRelative="0.63" departed="41" arrived="0" entered="0" left="41" laneChangedFrom="0" laneChangedTo="0"/>
        <edge id="-1192259547#0" sampledSeconds="0.00" departed="0" arrived="0" entered="0" left="0" laneChangedFrom="0" laneChangedTo="0"/>
        <edge id="-1192259547#1" sampledSeconds="0.00" departed="0" arrived="0" entered="0" left="0" laneChangedFrom="0" laneChangedTo="0"/>
        <edge id="-1192259547#2" sampledSeconds="0.00" departed="0" arrived="0" entered="0" left="0" laneChangedFrom="0" laneChangedTo="0"/>
        <edge id="-1192260047" sampledSeconds="0.00" departed="0" arrived="0" entered="0" left="0" laneChangedFrom="0" laneChangedTo="0"/>
        <edge id="-1192260334" sampledSeconds="0.00" departed="0" arrived="0" entered="0" left="0" laneChangedFrom="0" laneChangedTo="0"/>
        <edge id="-1192260787" sampledSeconds="87.75" traveltime="2.41" overlapTraveltime="3.05" density="1.12" laneDensity="1.12" occupancy="0.48" waitingTime="0.00" timeLoss="29.97" speed="9.06" speedRelative="0.65" departed="23" arrived="0" entered="11" left="34" laneChangedFrom="0" laneChangedTo="0"/>
        <edge id="-1192261218" sampledSeconds="0.00" departed="0" arrived="0" entered="0" left="0" laneChangedFrom="0" laneChangedTo="0"/>
        <edge id="-1192349845" sampledSeconds="50.78" traveltime="3.30" overlapTraveltime="3.73" density="0.35" laneDensity="0.35" occupancy="0.13" waitingTime="0.00" timeLoss="5.66" speed="11.98" speedRelative="0.86" departed="15" arrived="0" entered="0" left="15" laneChangedFrom="0" laneChangedTo="0"/>
        <edge id="-1192350266" sampledSeconds="0.00" departed="0" arrived="0" entered="0" left="0" laneChangedFrom="0" laneChangedTo="0"/>
        <edge id="-1216472561" sampledSeconds="0.00" departed="0" arrived="0" entered="0" left="0" laneChangedFrom="0" laneChangedTo="0"/>
        <edge id="-1238879358#0" sampledSeconds="139.68" traveltime="0.87" overlapTraveltime="2.29" density="6.99" laneDensity="6.99" occupancy="1.93" waitingTime="0.00" timeLoss="65.94" speed="5.04" speedRelative="0.23" departed="0" arrived="21" entered="68" left="47" laneChangedFrom="0" laneChangedTo="0"/>
        <edge id="-1238879358#1" sampledSeconds="236.28" traveltime="2.78" overlapTraveltime="3.27" density="1.56" laneDensity="1.56" occupancy="0.77" waitingTime="0.00" timeLoss="78.74" speed="14.63" speedRelative="0.66" departed="9" arrived="6" entered="65" left="68" laneChangedFrom="0" laneChangedTo="0"/>
        <edge id="-1238879358#3" sampledSeconds="236.36" traveltime="1.65" overlapTraveltime="2.27" density="3.13" laneDensity="3.13" occupancy="1.48" waitingTime="0.00" timeLoss="82.75" speed="12.03" speedRelative="0.54" departed="9" arrived="7" entered="100" left="101" laneChangedFrom="0" laneChangedTo="0"/>
        <edge id="-1238879358#4" sampledSeconds="118.89" traveltime="0.76" overlapTraveltime="1.13" density="2.64" laneDensity="2.64" occupancy="1.04" waitingTime="0.00" timeLoss="30.18" speed="16.61" speedRelative="0.75" departed="6" arrived="9" entered="104" left="101" laneChangedFrom="0" laneChangedTo="0"/>
        <edge id="-1238879358#5" sampledSeconds="1506.54" traveltime="11.29" overlapTraveltime="11.80" density="2.38" laneDensity="2.38" occupancy="1.40" waitingTime="2.00" timeLoss="443.88" speed="15.46" speedRelative="0.70" departed="3" arrived="4" entered="125" left="124" laneChangedFrom="0" laneChangedTo="0"/>
        <edge id="-1238879358#6" sampledSeconds="535.52" traveltime="7.34" overlapTraveltime="8.13" density="1.79" laneDensity="1.79" occupancy="1.05" waitingTime="3.00" timeLoss="253.58" speed="11.04" speedRelative="0.50" departed="7" arrived="7" entered="60" left="60" laneChangedFrom="0" laneChangedTo="0"/>
        <edge id="-1243421938" sampledSeconds="0.00" departed="0" arrived="0" entered="0" left="0" laneChangedFrom="0" laneChangedTo="0"/>
        <edge id="-1243425888" sampledSeconds="138.06" traveltime="6.26" overlapTraveltime="7.08" density="0.60" laneDensity="0.60" occupancy="0.25" waitingTime="2.00" timeLoss="27.72" speed="9.59" speedRelative="0.69" departed="21" arrived="0" entered="0" left="20" laneChangedFrom="0" laneChangedTo="0"/>
        <edge id="-1243972960" sampledSeconds="0.00" departed="0" arrived="0" entered="0" left="0" laneChangedFrom="0" laneChangedTo="0"/>
        <edge id="-124611611#0" sampledSeconds="75.73" traveltime="5.40" overlapTraveltime="5.83" density="0.39" laneDensity="0.39" occupancy="0.13" waitingTime="0.00" timeLoss="20.36" speed="9.91" speedRelative="0.71" departed="0" arrived="0" entered="13" left="13" laneChangedFrom="0" laneChangedTo="0"/>
        <edge id="-124611611#1" sampledSeconds="17.47" traveltime="1.49" overlapTraveltime="1.75" density="0.28" laneDensity="0.28" occupancy="0.07" waitingTime="0.00" timeLoss="2.25" speed="11.54" speedRelative="0.83" departed="0" arrived="1" entered="10" left="9" laneChangedFrom="0" laneChangedTo="0"/>
        <edge id="-124611611#2" sampledSeconds="6.29" traveltime="0.03" overlapTraveltime="0.54" density="8.74" laneDensity="8.74" occupancy="0.16" waitingTime="0.00" timeLoss="1.14" speed="6.74" speedRelative="0.49" departed="0" arrived="0" entered="13" left="13" laneChangedFrom="0" laneChangedTo="0"/>
        <edge id="-124611611#3" sampledSeconds="159.05" traveltime="10.49" overlapTraveltime="10.78" density="0.37" laneDensity="0.37" occupancy="0.11" waitingTime="0.00" timeLoss="24.38" speed="11.46" speedRelative="0.83" departed="1" arrived="1" entered="14" left="13" laneChangedFrom="0" laneChangedTo="0"/>
        <edge id="-124611611#4" sampledSeconds="6.87" traveltime="6.86" overlapTraveltime="7.33" density="0.03" laneDensity="0.03" occupancy="0.01" waitingTime="0.00" timeLoss="0.43" speed="10.99" speedRelative="0.79" departed="1" arrived="0" entered="0" left="1" laneChangedFrom="0" laneChangedTo="0"/>
        <edge id="-124611617#1" sampledSeconds="31.07" traveltime="7.41" overlapTraveltime="7.93" density="0.12" laneDensity="0.12" occupancy="0.05" waitingTime="0.00" timeLoss="7.07" speed="9.93" speedRelative="0.71" departed="1" arrived="2" entered="3" left="2" laneChangedFrom="0" laneChangedTo="0"/>
        <edge id="-124611617#2" sampledSeconds="22.66" traveltime="11.30" overlapTraveltime="11.56" density="0.05" laneDensity="0.05" occupancy="0.02" waitingTime="0.00" timeLoss="5.57" speed="11.24" speedRelative="0.81" departed="1" arrived="1" entered="1" left="1" laneChangedFrom="0" laneChangedTo="0"/>
        <edge id="-124611620" sampledSeconds="90.04" traveltime="14.49" overlapTraveltime="15.12" density="0.15" laneDensity="0.15" occupancy="0.05" waitingTime="0.00" timeLoss="17.24" speed="10.99" speedRelative="0.79" departed="2" arrived="1" entered="4" left="5" laneChangedFrom="0" laneChangedTo="0"/>
        <edge id="-124858284#0" sampledSeconds="160.61" traveltime="7.48" overlapTraveltime="8.36" density="0.66" laneDensity="0.66" occupancy="0.35" waitingTime="0.00" timeLoss="51.45" speed="8.84" speedRelative="0.64" departed="6" arrived="4" entered="14" left="16" laneChangedFrom="0" laneChangedTo="0"/>
        <edge id="-124858284#1" sampledSeconds="173.48" traveltime="6.45" overlapTraveltime="7.11" density="0.82" laneDensity="0.82" occupancy="0.35" waitingTime="0.00" timeLoss="50.27" speed="8.96" speedRelative="0.64" departed="8" arrived="5" entered="17" left="20" laneChangedFrom="0" laneChangedTo="0"/>
        <edge id="-124858284#2" sampledSeconds="111.99" traveltime="5.42" overlapTraveltime="6.00" density="0.59" laneDensity="0.59" occupancy="0.19" waitingTime="1.00" timeLoss="33.38" speed="9.33" speedRelative="0.67" departed="3" arrived="1" entered="16" left="18" laneChangedFrom="0" laneChangedTo="0"/>
        <edge id="-124858284#3" sampledSeconds="123.78" traveltime="4.81" overlapTraveltime="5.26" density="0.67" laneDensity="0.67" occupancy="0.25" waitingTime="0.00" timeLoss="27.59" speed="10.48" speedRelative="0.75" departed="5" arrived="3" entered="19" left="21" laneChangedFrom="0" laneChangedTo="0"/>
        <edge id="-124858284#4" sampledSeconds="134.41" traveltime="4.83" overlapTraveltime="5.42" density="0.82" laneDensity="0.82" occupancy="0.40" waitingTime="0.00" timeLoss="40.34" speed="9.47" speedRelative="0.68" departed="3" arrived="6" entered="23" left="20" laneChangedFrom="0" laneChangedTo="0"/>
        <edge id="-124858284#5" sampledSeconds="103.40" traveltime="5.44" overlapTraveltime="6.37" density="0.67" laneDensity="0.67" occupancy="0.35" waitingTime="5.00" timeLoss="43.10" speed="7.62" speedRelative="0.55" departed="3" arrived="2" entered="14" left="15" laneChangedFrom="0" laneChangedTo="0"/>
        <edge id="-124858284#7" sampledSeconds="130.52" traveltime="3.14" overlapTraveltime="3.98" density="1.35" laneDensity="1.35" occupancy="0.64" waitingTime="0.00" timeLoss="42.86" speed="8.25" speedRelative="0.59" departed="4" arrived="3" entered="30" left="31" laneChangedFrom="0" laneChangedTo="0"/>
        <edge id="-124858284#9" sampledSeconds="445.12" traveltime="8.00" overlapTraveltime="8.75" density="1.78" laneDensity="1.78" occupancy="0.98" waitingTime="0.00" timeLoss="154.31" speed="8.65" speedRelative="0.62" departed="9" arrived="3" entered="43" left="49" laneChangedFrom="0" laneChangedTo="0"/>
        <edge id="-124861796#0" sampledSeconds="307.82" traveltime="10.27" overlapTraveltime="11.35" density="0.96" laneDensity="0.96" occupancy="0.51" waitingTime="3.00" timeLoss="114.21" speed="8.36" speedRelative="0.60" departed="9" arrived="2" entered="19" left="26" laneChangedFrom="0" laneChangedTo="0"/>
        <edge id="-124861796#2" sampledSeconds="230.18" traveltime="10.94" overlapTraveltime="11.85" density="0.69" laneDensity="0.69" occupancy="0.35" waitingTime="3.00" timeLoss="81.25" speed="8.32" speedRelative="0.60" departed="9" arrived="7" entered="11" left="13" laneChangedFrom="0" laneChangedTo="0"/>
        <edge id="-124861802" sampledSeconds="293.34" traveltime="17.69" overlapTraveltime="18.81" density="0.47" laneDensity="0.47" occupancy="0.29" waitingTime="4.00" timeLoss="86.78" speed="9.63" speedRelative="0.69" departed="9" arrived="4" entered="7" left="12" laneChangedFrom="0" laneChangedTo="0"/>
        <edge id="-124861803#0" sampledSeconds="255.03" traveltime="11.33" overlapTraveltime="11.80" density="0.51" laneDensity="0.51" occupancy="0.29" waitingTime="0.00" timeLoss="24.79" speed="12.26" speedRelative="0.88" departed="0" arrived="22" entered="22" left="0" laneChangedFrom="0" laneChangedTo="0"/>
        <edge id="-124861803#2" sampledSeconds="630.29" traveltime="14.33" overlapTraveltime="15.27" density="1.12" laneDensity="1.12" occupancy="0.63" waitingTime="21.00" timeLoss="131.92" speed="10.62" speedRelative="0.76" departed="5" arrived="2" entered="37" left="39" laneChangedFrom="0" laneChangedTo="0"/>
        <edge id="-124861803#3" sampledSeconds="244.81" traveltime="2.22" overlapTraveltime="2.93" density="4.29" laneDensity="4.29" occupancy="1.82" waitingTime="0.00" timeLoss="109.87" speed="7.47" speedRelative="0.54" departed="8" arrived="6" entered="82" left="83" laneChangedFrom="0" laneChangedTo="0"/>
        <edge id="-124861809#0" sampledSeconds="336.70" traveltime="10.66" overlapTraveltime="11.44" density="1.05" laneDensity="1.05" occupancy="0.40" waitingTime="43.00" timeLoss="135.94" speed="8.13" speedRelative="0.59" departed="9" arrived="3" entered="21" left="27" laneChangedFrom="0" laneChangedTo="0"/>
        <edge id="-124861809#1" sampledSeconds="119.44" traveltime="8.70" overlapTraveltime="9.30" density="0.39" laneDensity="0.39" occupancy="0.14" waitingTime="0.00" timeLoss="38.37" speed="9.59" speedRelative="0.69" departed="2" arrived="4" entered="11" left="9" laneChangedFrom="0" laneChangedTo="0"/>
        <edge id="-124861812#0" sampledSeconds="124.88" traveltime="2.41" overlapTraveltime="3.27" density="1.29" laneDensity="1.29" occupancy="0.56" waitingTime="0.00" timeLoss="26.24" speed="9.93" speedRelative="0.72" departed="0" arrived="26" entered="39" left="13" laneChangedFrom="0" laneChangedTo="0"/>
        <edge id="-124861812#1" sampledSeconds="270.54" traveltime="5.84" overlapTraveltime="6.32" density="1.27" laneDensity="1.27" occupancy="0.66" waitingTime="0.00" timeLoss="69.98" speed="10.25" speedRelative="0.74" departed="7" arrived="5" entered="37" left="39" laneChangedFrom="0" laneChangedTo="0"/>
        <edge id="-124861812#2" sampledSeconds="328.50" traveltime="8.87" overlapTraveltime="9.82" density="1.04" laneDensity="1.04" occupancy="0.60" waitingTime="3.00" timeLoss="94.43" speed="9.55" speedRelative="0.69" departed="3" arrived="5" entered="31" left="29" laneChangedFrom="0" laneChangedTo="0"/>
        <edge id="-124861817#0" sampledSeconds="1424.77" traveltime="25.36" overlapTraveltime="26.42" density="2.16" laneDensity="2.16" occupancy="0.99" waitingTime="430.00" timeLoss="665.58" speed="7.11" speedRelative="0.51" departed="5" arrived="5" entered="49" left="49" laneChangedFrom="0" laneChangedTo="0"/>
        <edge id="-124861817#1" sampledSeconds="524.37" traveltime="6.93" overlapTraveltime="8.25" density="3.22" laneDensity="3.22" occupancy="1.72" waitingTime="106.00" timeLoss="282.40" speed="6.21" speedRelative="0.45" departed="0" arrived="7" entered="65" left="58" laneChangedFrom="0" laneChangedTo="0"/>
        <edge id="-124861817#2" sampledSeconds="534.71" traveltime="9.48" overlapTraveltime="9.95" density="1.28" laneDensity="1.28" occupancy="0.65" waitingTime="0.00" timeLoss="62.11" speed="12.21" speedRelative="0.88" departed="5" arrived="5" entered="49" left="49" laneChangedFrom="0" laneChangedTo="0"/>
        <edge id="-124861817#3" sampledSeconds="258.51" traveltime="5.53" overlapTraveltime="5.99" density="1.23" laneDensity="1.23" occupancy="0.60" waitingTime="0.00" timeLoss="56.98" speed="10.63" speedRelative="0.77" departed="8" arrived="5" entered="36" left="39" laneChangedFrom="0" laneChangedTo="0"/>
        <edge id="-124861817#4" sampledSeconds="198.73" traveltime="6.49" overlapTraveltime="6.94" density="0.81" laneDensity="0.81" occupancy="0.38" waitingTime="0.00" timeLoss="46.39" speed="10.62" speedRelative="0.76" departed="3" arrived="7" entered="26" left="22" laneChangedFrom="0" laneChangedTo="0"/>
        <edge id="-124861817#5" sampledSeconds="201.95" traveltime="7.43" overlapTraveltime="8.76" density="0.81" laneDensity="0.81" occupancy="0.43" waitingTime="11.00" timeLoss="69.74" speed="8.59" speedRelative="0.62" departed="25" arrived="0" entered="0" left="25" laneChangedFrom="0" laneChangedTo="0"/>
        <edge id="-124861823#0" sampledSeconds="556.30" traveltime="5.77" overlapTraveltime="6.73" density="2.35" laneDensity="2.35" occupancy="1.08" waitingTime="13.00" timeLoss="243.75" speed="10.56" speedRelative="0.48" departed="9" arrived="11" entered="75" left="73" laneChangedFrom="0" laneChangedTo="0"/>
        <edge id="-124861823#1" sampledSeconds="599.26" traveltime="4.03" overlapTraveltime="4.80" density="2.77" laneDensity="2.77" occupancy="1.26" waitingTime="22.00" timeLoss="193.10" speed="13.60" speedRelative="0.61" departed="6" arrived="8" entered="120" left="118" laneChangedFrom="0" laneChangedTo="0"/>
        <edge id="-124861823#2" sampledSeconds="681.74" traveltime="3.40" overlapTraveltime="4.06" density="3.52" laneDensity="3.52" occupancy="1.56" waitingTime="9.00" timeLoss="193.60" speed="14.52" speedRelative="0.65" departed="5" arrived="6" entered="164" left="163" laneChangedFrom="0" laneChangedTo="0"/>
        <edge id="-124861823#3" sampledSeconds="582.36" traveltime="2.88" overlapTraveltime="3.27" density="3.39" laneDensity="3.39" occupancy="1.55" waitingTime="8.00" timeLoss="139.34" speed="16.14" speedRelative="0.73" departed="1" arrived="2" entered="178" left="177" laneChangedFrom="0" laneChangedTo="0"/>
        <edge id="-124861823#4" sampledSeconds="722.19" traveltime="3.19" overlapTraveltime="3.76" density="4.29" laneDensity="4.29" occupancy="1.96" waitingTime="39.00" timeLoss="242.46" speed="13.87" speedRelative="0.62" departed="5" arrived="4" entered="189" left="190" laneChangedFrom="0" laneChangedTo="0"/>
        <edge id="-124861823#5" sampledSeconds="657.94" traveltime="2.99" overlapTraveltime="3.48" density="4.10" laneDensity="4.10" occupancy="1.93" waitingTime="8.00" timeLoss="193.21" speed="14.39" speedRelative="0.65" departed="3" arrived="5" entered="187" left="185" laneChangedFrom="0" laneChangedTo="0"/>
        <edge id="-124861823#6" sampledSeconds="551.36" traveltime="2.82" overlapTraveltime="3.22" density="3.38" laneDensity="3.38" occupancy="1.77" waitingTime="0.00" timeLoss="141.16" speed="15.96" speedRelative="0.72" departed="1" arrived="5" entered="172" left="168" laneChangedFrom="0" laneChangedTo="0"/>
        <edge id="-124861823#7" sampledSeconds="1296.68" traveltime="6.48" overlapTraveltime="7.25" density="5.56" laneDensity="5.56" occupancy="3.04" waitingTime="94.00" timeLoss="705.33" speed="9.79" speedRelative="0.44" departed="6" arrived="7" entered="175" left="174" laneChangedFrom="0" laneChangedTo="0"/>
        <edge id="-124861824#0" sampledSeconds="1886.48" traveltime="37.68" overlapTraveltime="39.59" density="2.87" laneDensity="2.87" occupancy="1.90" waitingTime="969.00" timeLoss="1222.85" speed="4.78" speedRelative="0.34" departed="4" arrived="3" entered="44" left="45" laneChangedFrom="0" laneChangedTo="0"/>
        <edge id="-124861824#1" sampledSeconds="437.72" traveltime="6.98" overlapTraveltime="7.56" density="1.46" laneDensity="1.46" occupancy="0.71" waitingTime="1.00" timeLoss="59.31" speed="11.69" speedRelative="0.84" departed="4" arrived="3" entered="54" left="55" laneChangedFrom="0" laneChangedTo="0"/>
        <edge id="-124861824#2" sampledSeconds="338.90" traveltime="6.62" overlapTraveltime="7.11" density="1.21" laneDensity="1.21" occupancy="0.64" waitingTime="0.00" timeLoss="46.42" speed="11.74" speedRelative="0.85" departed="4" arrived="3" entered="44" left="45" laneChangedFrom="0" laneChangedTo="0"/>
        <edge id="-124861824#3" sampledSeconds="442.48" traveltime="12.19" overlapTraveltime="12.69" density="0.86" laneDensity="0.86" occupancy="0.49" waitingTime="0.00" timeLoss="67.79" speed="11.76" speedRelative="0.85" departed="2" arrived="2" entered="33" left="33" laneChangedFrom="0" laneChangedTo="0"/>
        <edge id="-124861825#0" sampledSeconds="610.53" traveltime="8.14" overlapTraveltime="8.77" density="1.89" laneDensity="1.89" occupancy="0.94" waitingTime="0.00" timeLoss="110.72" speed="10.86" speedRelative="0.78" departed="6" arrived="3" entered="64" left="67" laneChangedFrom="0" laneChangedTo="0"/>
        <edge id="-124861825#1" sampledSeconds="706.27" traveltime="7.14" overlapTraveltime="8.21" density="4.79" laneDensity="4.79" occupancy="2.24" waitingTime="216.00" timeLoss="397.61" speed="5.63" speedRelative="0.41" departed="4" arrived="1" entered="83" left="86" laneChangedFrom="0" laneChangedTo="0"/>
        <edge id="-124861825#10" sampledSeconds="1258.76" traveltime="6.56" overlapTraveltime="7.90" density="9.16" laneDensity="9.16" occupancy="4.96" waitingTime="160.00" timeLoss="719.55" speed="5.63" speedRelative="0.41" departed="10" arrived="6" entered="154" left="158" laneChangedFrom="0" laneChangedTo="0"/>
        <edge id="-124861825#2" sampledSeconds="330.54" traveltime="3.00" overlapTraveltime="3.65" density="2.76" laneDensity="2.76" occupancy="1.28" waitingTime="2.00" timeLoss="70.47" speed="10.64" speedRelative="0.77" departed="5" arrived="2" entered="87" left="90" laneChangedFrom="0" laneChangedTo="0"/>
        <edge id="-124861825#3" sampledSeconds="379.95" traveltime="2.73" overlapTraveltime="3.29" density="3.38" laneDensity="3.38" occupancy="1.41" waitingTime="6.00" timeLoss="61.18" speed="11.09" speedRelative="0.80" departed="3" arrived="6" entered="114" left="110" laneChangedFrom="0" laneChangedTo="0"/>
        <edge id="-124861825#5" sampledSeconds="446.49" traveltime="3.00" overlapTraveltime="3.52" density="3.66" laneDensity="3.66" occupancy="1.58" waitingTime="0.00" timeLoss="77.52" speed="11.11" speedRelative="0.80" departed="8" arrived="4" entered="120" left="124" laneChangedFrom="0" laneChangedTo="0"/>
        <edge id="-124861825#6" sampledSeconds="951.94" traveltime="8.20" overlapTraveltime="8.67" density="2.77" laneDensity="2.77" occupancy="1.43" waitingTime="0.00" timeLoss="140.26" speed="11.65" speedRelative="0.84" departed="2" arrived="2" entered="108" left="108" laneChangedFrom="0" laneChangedTo="0"/>
        <edge id="-124861825#7" sampledSeconds="1010.76" traveltime="8.58" overlapTraveltime="9.49" density="3.16" laneDensity="3.16" occupancy="1.68" waitingTime="11.00" timeLoss="277.10" speed="9.98" speedRelative="0.72" departed="0" arrived="5" entered="107" left="102" laneChangedFrom="0" laneChangedTo="0"/>
        <edge id="-124861825#8" sampledSeconds="1516.58" traveltime="10.80" overlapTraveltime="11.72" density="4.51" laneDensity="4.51" occupancy="2.35" waitingTime="139.00" timeLoss="575.14" speed="8.46" speedRelative="0.61" departed="8" arrived="1" entered="122" left="129" laneChangedFrom="0" laneChangedTo="0"/>
        <edge id="-124861825#9" sampledSeconds="2802.81" traveltime="11.40" overlapTraveltime="12.62" density="8.95" laneDensity="8.95" occupancy="4.98" waitingTime="365.00" timeLoss="1269.01" speed="7.37" speedRelative="0.53" departed="5" arrived="5" entered="219" left="218" laneChangedFrom="0" laneChangedTo="0"/>
        <edge id="-1265177026#0" sampledSeconds="173.38" traveltime="2.41" overlapTraveltime="3.98" density="2.61" laneDensity="2.61" occupancy="1.21" waitingTime="0.00" timeLoss="106.86" speed="6.21" speedRelative="0.28" departed="8" arrived="4" entered="39" left="43" laneChangedFrom="0" laneChangedTo="0"/>
        <edge id="-1265177026#1" sampledSeconds="218.17" traveltime="4.04" overlapTraveltime="4.45" density="0.92" laneDensity="0.92" occupancy="0.52" waitingTime="0.00" timeLoss="55.62" speed="16.25" speedRelative="0.73" departed="5" arrived="11" entered="45" left="39" laneChangedFrom="0" laneChangedTo="0"/>