<?xml version="1.0" encoding="UTF-8"?>

<!-- generated on 2025-09-21 18:59:28 by Eclipse SUMO GUI Version 1.24.0
<sumoConfiguration xmlns:xsi="http://www.w3.org/2001/XMLSchema-instance" xsi:noNamespaceSchemaLocation="http://sumo.dlr.de/xsd/sumoConfiguration.xsd">

    <input>
        <net-file value="sumo_files/Moderate/osm.net.xml.gz"/>
        <route-files value="sumo_files/Moderate/osm_pt.rou.xml,sumo_files/Moderate/osm.bus.trips.xml,sumo_files/Moderate/osm.motorcycle.trips.xml,sumo_files/Moderate/osm.passenger.trips.xml,sumo_files/Moderate/osm.truck.trips.xml"/>
        <additional-files value="sumo_files/Moderate/osm.poly.xml.gz,sumo_files/Moderate/osm_stops.add.xml,sumo_files/Moderate/output.add.xml"/>
    </input>

    <output>
        <tripinfo-output value="sumo_files/Moderate/tripinfos.xml"/>
        <stop-output value="sumo_files/Moderate/stopinfos.xml"/>
        <statistic-output value="sumo_files/Moderate/stats.xml"/>
    </output>

    <time>
        <step-length value="1.0"/>
    </time>

    <processing>
        <ignore-route-errors value="true"/>
        <tls.actuated.jam-threshold value="30"/>
    </processing>

    <routing>
        <device.rerouting.adaptation-steps value="18"/>
        <device.rerouting.adaptation-interval value="10"/>
    </routing>

    <report>
        <verbose value="true"/>
        <no-warnings value="true"/>
        <duration-log.statistics value="true"/>
        <no-step-log value="true"/>
    </report>

    <traci_server>
        <remote-port value="53507"/>
    </traci_server>

    <gui_only>
        <gui-settings-file value="sumo_files/Moderate/osm.view.xml"/>
    </gui_only>

</sumoConfiguration>
-->

<tripinfos xmlns:xsi="http://www.w3.org/2001/XMLSchema-instance" xsi:noNamespaceSchemaLocation="http://sumo.dlr.de/xsd/tripinfo_file.xsd">
    <tripinfo id="motorcycle2" depart="10.00" departLane="-220589497#2_0" departPos="2.30" departSpeed="14.53" departDelay="0.12" arrival="65.00" arrivalLane="438962717#1_0" arrivalPos="42.06" arrivalSpeed="14.18" duration="55.00" routeLength="634.63" waitingTime="0.00" waitingCount="0" stopTime="0.00" timeLoss="10.40" rerouteNo="1" devices="tripinfo_motorcycle2 routing_motorcycle2" vType="motorcycle_motorcycle" speedFactor="1.05" vaporized=""/>
    <tripinfo id="motorcycle1" depart="5.00" departLane="-608078456_0" departPos="2.30" departSpeed="13.03" departDelay="0.06" arrival="71.00" arrivalLane="1192349845_0" arrivalPos="40.67" arrivalSpeed="12.28" duration="66.00" routeLength="940.36" waitingTime="0.00" waitingCount="0" stopTime="0.00" timeLoss="11.75" rerouteNo="1" devices="tripinfo_motorcycle1 routing_motorcycle1" vType="motorcycle_motorcycle" speedFactor="0.94" vaporized=""/>
    <tripinfo id="veh0" depart="0.00" departLane="-124861823#1_0" departPos="5.10" departSpeed="0.00" departDelay="0.00" arrival="80.00" arrivalLane="-1238879358#4_0" arrivalPos="12.52" arrivalSpeed="22.25" duration="80.00" routeLength="1195.78" waitingTime="0.00" waitingCount="0" stopTime="0.00" timeLoss="20.30" rerouteNo="1" devices="tripinfo_veh0 routing_veh0" vType="veh_passenger" speedFactor="1.01" vaporized=""/>
    <tripinfo id="motorcycle7" depart="35.00" departLane="1265177027#0_0" departPos="2.30" departSpeed="0.00" departDelay="0.41" arrival="80.00" arrivalLane="124861812#2_0" arrivalPos="87.47" arrivalSpeed="12.73" duration="45.00" routeLength="688.03" waitingTime="0.00" waitingCount="0" stopTime="0.00" timeLoss="7.30" rerouteNo="1" devices="tripinfo_motorcycle7 routing_motorcycle7" vType="motorcycle_motorcycle" speedFactor="1.03" vaporized=""/>
    <tripinfo id="motorcycle8" depart="40.00" departLane="-725293625#1_0" departPos="2.30" departSpeed="23.27" departDelay="0.47" arrival="81.00" arrivalLane="124858284#7_0" arrivalPos="26.94" arrivalSpeed="12.92" duration="41.00" routeLength="478.40" waitingTime="0.00" waitingCount="0" stopTime="0.00" timeLoss="6.91" rerouteNo="1" devices="tripinfo_motorcycle8 routing_motorcycle8" vType="motorcycle_motorcycle" speedFactor="1.05" vaporized=""/>
    <tripinfo id="motorcycle11" depart="55.00" departLane="1238879358#0_0" departPos="2.30" departSpeed="20.59" departDelay="0.64" arrival="90.00" arrivalLane="665946597#0_0" arrivalPos="181.28" arrivalSpeed="23.23" duration="35.00" routeLength="603.68" waitingTime="1.00" waitingCount="1" stopTime="0.00" timeLoss="6.71" rerouteNo="1" devices="tripinfo_motorcycle11 routing_motorcycle11" vType="motorcycle_motorcycle" speedFactor="0.93" vaporized=""/>
    <tripinfo id="motorcycle0" depart="0.00" departLane="-1126750041#1_0" departPos="2.30" departSpeed="2.95" departDelay="0.00" arrival="95.00" arrivalLane="1265177027#3_0" arrivalPos="88.94" arrivalSpeed="20.78" duration="95.00" routeLength="808.14" waitingTime="0.00" waitingCount="0" stopTime="0.00" timeLoss="24.82" rerouteNo="1" devices="tripinfo_motorcycle0 routing_motorcycle0" vType="motorcycle_motorcycle" speedFactor="1.06" vaporized=""/>
    <tripinfo id="motorcycle9" depart="45.00" departLane="-220589497#2_0" departPos="2.30" departSpeed="15.60" departDelay="0.53" arrival="99.00" arrivalLane="-124611620_0" arrivalPos="162.61" arrivalSpeed="14.31" duration="54.00" routeLength="616.02" waitingTime="0.00" waitingCount="0" stopTime="0.00" timeLoss="11.28" rerouteNo="1" devices="tripinfo_motorcycle9 routing_motorcycle9" vType="motorcycle_motorcycle" speedFactor="1.12" vaporized=""/>
    <tripinfo id="motorcycle10" depart="50.00" departLane="317349751#1_0" departPos="2.30" departSpeed="0.00" departDelay="0.58" arrival="99.00" arrivalLane="1243425888_0" arrivalPos="63.58" arrivalSpeed="13.25" duration="49.00" routeLength="469.08" waitingTime="3.00" waitingCount="1" stopTime="0.00" timeLoss="14.84" rerouteNo="1" devices="tripinfo_motorcycle10 routing_motorcycle10" vType="motorcycle_motorcycle" speedFactor="0.99" vaporized=""/>
    <tripinfo id="veh2" depart="10.00" departLane="124861814_0" departPos="1.44" departSpeed="14.14" departDelay="0.12" arrival="100.00" arrivalLane="-725293625#0_0" arrivalPos="89.15" arrivalSpeed="19.80" duration="90.00" routeLength="1523.34" waitingTime="0.00" waitingCount="0" stopTime="0.00" timeLoss="15.26" rerouteNo="1" devices="tripinfo_veh2 routing_veh2" vType="veh_passenger" speedFactor="0.90" vaporized=""/>
    <tripinfo id="veh8" depart="40.00" departLane="124861803#0_0" departPos="5.10" departSpeed="15.22" departDelay="0.47" arrival="102.00" arrivalLane="-725363522#0_0" arrivalPos="176.54" arrivalSpeed="14.33" duration="62.00" routeLength="590.13" waitingTime="3.00" waitingCount="1" stopTime="0.00" timeLoss="22.35" rerouteNo="1" devices="tripinfo_veh8 routing_veh8" vType="veh_passenger" speedFactor="1.10" vaporized=""/>
    <tripinfo id="veh1" depart="5.00" departLane="-1238879358#4_0" departPos="5.10" departSpeed="0.00" departDelay="0.06" arrival="104.00" arrivalLane="-1126750042_0" arrivalPos="76.57" arrivalSpeed="13.82" duration="99.00" routeLength="1290.50" waitingTime="2.00" waitingCount="1" stopTime="0.00" timeLoss="34.57" rerouteNo="1" devices="tripinfo_veh1 routing_veh1" vType="veh_passenger" speedFactor="1.08" vaporized=""/>
    <tripinfo id="motorcycle12" depart="60.00" departLane="124861812#2_0" departPos="2.30" departSpeed="0.00" departDelay="0.70" arrival="104.00" arrivalLane="-124861809#1_0" arrivalPos="85.35" arrivalSpeed="11.34" duration="44.00" routeLength="378.60" waitingTime="1.00" waitingCount="1" stopTime="0.00" timeLoss="11.18" rerouteNo="1" devices="tripinfo_motorcycle12 routing_motorcycle12" vType="motorcycle_motorcycle" speedFactor="0.88" vaporized=""/>
    <tripinfo id="motorcycle3" depart="15.00" departLane="1126750042_0" departPos="2.30" departSpeed="0.00" departDelay="0.18" arrival="105.00" arrivalLane="214085919#5_0" arrivalPos="36.51" arrivalSpeed="9.68" duration="90.00" routeLength="1082.29" waitingTime="0.00" waitingCount="0" stopTime="0.00" timeLoss="14.92" rerouteNo="1" devices="tripinfo_motorcycle3 routing_motorcycle3" vType="motorcycle_motorcycle" speedFactor="0.89" vaporized=""/>
    <tripinfo id="motorcycle17" depart="85.00" departLane="-1238879358#1_0" departPos="2.30" departSpeed="0.00" departDelay="0.99" arrival="107.00" arrivalLane="1192260787_0" arrivalPos="27.03" arrivalSpeed="12.83" duration="22.00" routeLength="176.81" waitingTime="0.00" waitingCount="0" stopTime="0.00" timeLoss="10.05" rerouteNo="1" devices="tripinfo_motorcycle17 routing_motorcycle17" vType="motorcycle_motorcycle" speedFactor="1.01" vaporized=""/>
    <tripinfo id="veh3" depart="15.00" departLane="725363522#0_0" departPos="5.10" departSpeed="0.00" departDelay="0.18" arrival="109.00" arrivalLane="-124861812#1_0" arrivalPos="59.06" arrivalSpeed="12.05" duration="94.00" routeLength="1020.29" waitingTime="0.00" waitingCount="0" stopTime="0.00" timeLoss="15.29" rerouteNo="1" devices="tripinfo_veh3 routing_veh3" vType="veh_passenger" speedFactor="0.88" vaporized=""/>
    <tripinfo id="truck0" depart="0.00" departLane="-1265177027#2_0" departPos="7.20" departSpeed="0.00" departDelay="0.00" arrival="113.00" arrivalLane="1192260787_0" arrivalPos="27.03" arrivalSpeed="11.61" duration="113.00" routeLength="1186.86" waitingTime="2.00" waitingCount="1" stopTime="0.00" timeLoss="38.04" rerouteNo="1" devices="tripinfo_truck0 routing_truck0" vType="truck_truck" speedFactor="1.02" vaporized=""/>
    <tripinfo id="truck2" depart="30.00" departLane="-1192260787_0" departPos="7.20" departSpeed="13.72" departDelay="0.35" arrival="113.00" arrivalLane="1121689775#1_0" arrivalPos="18.13" arrivalSpeed="19.19" duration="83.00" routeLength="1129.49" waitingTime="0.00" waitingCount="0" stopTime="0.00" timeLoss="33.59" rerouteNo="1" devices="tripinfo_truck2 routing_truck2" vType="truck_truck" speedFactor="1.00" vaporized=""/>
    <tripinfo id="truck1" depart="15.00" departLane="-1177177536#0_0" departPos="7.20" departSpeed="0.00" departDelay="0.18" arrival="114.00" arrivalLane="124861821#0_0" arrivalPos="0.20" arrivalSpeed="5.26" duration="99.00" routeLength="1095.95" waitingTime="3.00" waitingCount="1" stopTime="0.00" timeLoss="36.32" rerouteNo="1" devices="tripinfo_truck1 routing_truck1" vType="truck_truck" speedFactor="0.92" vaporized=""/>
    <tripinfo id="veh9" depart="47.00" departLane="214085922#5_0" departPos="5.10" departSpeed="0.00" departDelay="2.53" arrival="115.00" arrivalLane="124861821#2_0" arrivalPos="32.27" arrivalSpeed="18.51" duration="68.00" routeLength="869.90" waitingTime="0.00" waitingCount="0" stopTime="0.00" timeLoss="30.41" rerouteNo="1" devices="tripinfo_veh9 routing_veh9" vType="veh_passenger" speedFactor="1.00" vaporized=""/>
    <tripinfo id="veh11" depart="55.00" departLane="-214085922#5_0" departPos="5.10" departSpeed="0.00" departDelay="0.64" arrival="115.00" arrivalLane="317349751#1_0" arrivalPos="115.57" arrivalSpeed="12.09" duration="60.00" routeLength="613.93" waitingTime="2.00" waitingCount="1" stopTime="0.00" timeLoss="18.43" rerouteNo="1" devices="tripinfo_veh11 routing_veh11" vType="veh_passenger" speedFactor="0.90" vaporized=""/>
    <tripinfo id="motorcycle6" depart="30.00" departLane="-725293625#1_0" departPos="2.30" departSpeed="24.24" departDelay="0.35" arrival="116.00" arrivalLane="1192260787_0" arrivalPos="27.03" arrivalSpeed="14.27" duration="86.00" routeLength="1429.72" waitingTime="0.00" waitingCount="0" stopTime="0.00" timeLoss="19.29" rerouteNo="1" devices="tripinfo_motorcycle6 routing_motorcycle6" vType="motorcycle_motorcycle" speedFactor="1.09" vaporized=""/>
    <tripinfo id="veh15" depart="75.00" departLane="-1303633133_0" departPos="5.10" departSpeed="7.92" departDelay="0.88" arrival="124.00" arrivalLane="124861823#4_0" arrivalPos="46.71" arrivalSpeed="23.00" duration="49.00" routeLength="611.44" waitingTime="0.00" waitingCount="0" stopTime="0.00" timeLoss="10.79" rerouteNo="1" devices="tripinfo_veh15 routing_veh15" vType="veh_passenger" speedFactor="1.08" vaporized=""/>
    <tripinfo id="bus1" depart="15.00" departLane="-1265177027#3_0" departPos="12.10" departSpeed="0.00" departDelay="0.25" arrival="125.00" arrivalLane="-214085913#1_0" arrivalPos="83.87" arrivalSpeed="13.52" duration="110.00" routeLength="990.75" waitingTime="18.00" waitingCount="1" stopTime="0.00" timeLoss="45.67" rerouteNo="1" devices="tripinfo_bus1 routing_bus1" vType="bus_bus" speedFactor="1.00" vaporized=""/>
    <tripinfo id="veh4" depart="20.00" departLane="124858284#2_0" departPos="5.10" departSpeed="0.00" departDelay="0.23" arrival="126.00" arrivalLane="725363523#3_0" arrivalPos="0.23" arrivalSpeed="18.45" duration="106.00" routeLength="1556.62" waitingTime="0.00" waitingCount="0" stopTime="0.00" timeLoss="17.71" rerouteNo="1" devices="tripinfo_veh4 routing_veh4" vType="veh_passenger" speedFactor="0.85" vaporized=""/>
    <tripinfo id="veh14" depart="70.00" departLane="214085949_0" departPos="5.10" departSpeed="0.00" departDelay="0.82" arrival="129.00" arrivalLane="124861817#5_0" arrivalPos="69.48" arrivalSpeed="12.53" duration="59.00" routeLength="686.41" waitingTime="0.00" waitingCount="0" stopTime="0.00" timeLoss="14.13" rerouteNo="1" devices="tripinfo_veh14 routing_veh14" vType="veh_passenger" speedFactor="0.97" vaporized=""/>
    <tripinfo id="veh7" depart="35.00" departLane="124861821#2_0" departPos="5.10" departSpeed="0.00" departDelay="0.41" arrival="131.00" arrivalLane="214085908#1_0" arrivalPos="56.63" arrivalSpeed="14.02" duration="96.00" routeLength="1464.26" waitingTime="0.00" waitingCount="0" stopTime="0.00" timeLoss="31.51" rerouteNo="1" devices="tripinfo_veh7 routing_veh7" vType="veh_passenger" speedFactor="1.02" vaporized=""/>
    <tripinfo id="motorcycle4" depart="20.00" departLane="-439133784#1_0" departPos="2.30" departSpeed="13.03" departDelay="0.23" arrival="133.00" arrivalLane="-1265177027#0_0" arrivalPos="87.10" arrivalSpeed="20.66" duration="113.00" routeLength="939.50" waitingTime="6.00" waitingCount="4" stopTime="0.00" timeLoss="43.44" rerouteNo="1" devices="tripinfo_motorcycle4 routing_motorcycle4" vType="motorcycle_motorcycle" speedFactor="0.94" vaporized=""/>
    <tripinfo id="veh12" depart="62.00" departLane="-214085922#3_0" departPos="5.10" departSpeed="0.00" departDelay="2.70" arrival="134.00" arrivalLane="317349751#6_0" arrivalPos="49.66" arrivalSpeed="15.53" duration="72.00" routeLength="994.54" waitingTime="0.00" waitingCount="0" stopTime="0.00" timeLoss="29.24" rerouteNo="1" devices="tripinfo_veh12 routing_veh12" vType="veh_passenger" speedFactor="1.14" vaporized=""/>
    <tripinfo id="bus0" depart="0.00" departLane="124861809#0_0" departPos="12.10" departSpeed="0.00" departDelay="0.00" arrival="135.00" arrivalLane="-1238879358#1_0" arrivalPos="42.04" arrivalSpeed="21.65" duration="135.00" routeLength="1204.82" waitingTime="21.00" waitingCount="1" stopTime="0.00" timeLoss="60.72" rerouteNo="1" devices="tripinfo_bus0 routing_bus0" vType="bus_bus" speedFactor="1.00" vaporized=""/>
    <tripinfo id="veh10" depart="50.00" departLane="1303443733_0" departPos="5.10" departSpeed="9.60" departDelay="0.58" arrival="135.00" arrivalLane="124861825#9_0" arrivalPos="86.96" arrivalSpeed="13.10" duration="85.00" routeLength="740.31" waitingTime="10.00" waitingCount="1" stopTime="0.00" timeLoss="38.54" rerouteNo="1" devices="tripinfo_veh10 routing_veh10" vType="veh_passenger" speedFactor="1.00" vaporized=""/>
    <tripinfo id="bus3" depart="45.00" departLane="-1126750041#0_0" departPos="0.10" departSpeed="0.00" departDelay="0.74" arrival="136.00" arrivalLane="-1265177027#1_0" arrivalPos="98.18" arrivalSpeed="21.81" duration="91.00" routeLength="840.14" waitingTime="12.00" waitingCount="2" stopTime="0.00" timeLoss="45.95" rerouteNo="1" devices="tripinfo_bus3 routing_bus3" vType="bus_bus" speedFactor="1.00" vaporized=""/>
    <tripinfo id="truck3" depart="45.00" departLane="1303443733_0" departPos="7.20" departSpeed="8.40" departDelay="0.53" arrival="139.00" arrivalLane="725363523#3_0" arrivalPos="0.23" arrivalSpeed="22.19" duration="94.00" routeLength="1021.07" waitingTime="16.00" waitingCount="1" stopTime="0.00" timeLoss="40.81" rerouteNo="1" devices="tripinfo_truck3 routing_truck3" vType="truck_truck" speedFactor="1.01" vaporized=""/>
    <tripinfo id="motorcycle5" depart="25.00" departLane="214670750_0" departPos="2.30" departSpeed="11.90" departDelay="0.29" arrival="140.00" arrivalLane="317349751#1_0" arrivalPos="115.57" arrivalSpeed="9.59" duration="115.00" routeLength="883.95" waitingTime="0.00" waitingCount="0" stopTime="0.00" timeLoss="22.40" rerouteNo="1" devices="tripinfo_motorcycle5 routing_motorcycle5" vType="motorcycle_motorcycle" speedFactor="0.86" vaporized=""/>
    <tripinfo id="motorcycle23" depart="114.00" departLane="-49591929_0" departPos="2.30" departSpeed="21.08" departDelay="0.34" arrival="146.00" arrivalLane="-124611611#1_0" arrivalPos="17.12" arrivalSpeed="11.38" duration="32.00" routeLength="391.78" waitingTime="0.00" waitingCount="0" stopTime="0.00" timeLoss="8.22" rerouteNo="1" devices="tripinfo_motorcycle23 routing_motorcycle23" vType="motorcycle_motorcycle" speedFactor="0.95" vaporized=""/>
    <tripinfo id="bus2" depart="30.00" departLane="317349751#4_0" departPos="12.10" departSpeed="0.00" departDelay="0.49" arrival="147.00" arrivalLane="-124861803#0_0" arrivalPos="138.83" arrivalSpeed="13.34" duration="117.00" routeLength="1035.94" waitingTime="2.00" waitingCount="1" stopTime="0.00" timeLoss="39.25" rerouteNo="1" devices="tripinfo_bus2 routing_bus2" vType="bus_bus" speedFactor="1.00" vaporized=""/>
    <tripinfo id="veh13" depart="65.00" departLane="-124861796#0_0" departPos="5.10" departSpeed="0.00" departDelay="0.76" arrival="148.00" arrivalLane="124861823#3_0" arrivalPos="47.65" arrivalSpeed="15.06" duration="83.00" routeLength="1007.74" waitingTime="1.00" waitingCount="1" stopTime="0.00" timeLoss="28.11" rerouteNo="1" devices="tripinfo_veh13 routing_veh13" vType="veh_passenger" speedFactor="1.02" vaporized=""/>
    <tripinfo id="veh17" depart="85.00" departLane="214085972_0" departPos="5.10" departSpeed="0.00" departDelay="0.99" arrival="148.00" arrivalLane="317349751#5_0" arrivalPos="64.50" arrivalSpeed="13.09" duration="63.00" routeLength="679.94" waitingTime="0.00" waitingCount="0" stopTime="0.00" timeLoss="17.07" rerouteNo="1" devices="tripinfo_veh17 routing_veh17" vType="veh_passenger" speedFactor="1.02" vaporized=""/>
    <tripinfo id="veh19" depart="97.00" departLane="-124861825#6_0" departPos="5.10" departSpeed="0.00" departDelay="3.11" arrival="151.00" arrivalLane="-124858284#7_0" arrivalPos="26.94" arrivalSpeed="10.90" duration="54.00" routeLength="550.00" waitingTime="0.00" waitingCount="0" stopTime="0.00" timeLoss="13.27" rerouteNo="1" devices="tripinfo_veh19 routing_veh19" vType="veh_passenger" speedFactor="0.94" vaporized=""/>
    <tripinfo id="veh18" depart="89.00" departLane="-1265177027#2_0" departPos="5.10" departSpeed="0.00" departDelay="0.05" arrival="153.00" arrivalLane="725363522#1_0" arrivalPos="180.84" arrivalSpeed="13.11" duration="64.00" routeLength="836.90" waitingTime="0.00" waitingCount="0" stopTime="0.00" timeLoss="10.10" rerouteNo="1" devices="tripinfo_veh18 routing_veh18" vType="veh_passenger" speedFactor="0.99" vaporized=""/>
    <tripinfo id="motorcycle22" depart="109.00" departLane="-124611617#1_0" departPos="2.30" departSpeed="0.00" departDelay="0.28" arrival="155.00" arrivalLane="220589498#0_0" arrivalPos="84.69" arrivalSpeed="11.24" duration="46.00" routeLength="524.17" waitingTime="0.00" waitingCount="0" stopTime="0.00" timeLoss="9.20" rerouteNo="1" devices="tripinfo_motorcycle22 routing_motorcycle22" vType="motorcycle_motorcycle" speedFactor="0.92" vaporized=""/>
    <tripinfo id="motorcycle16" depart="80.00" departLane="-124861803#2_0" departPos="2.30" departSpeed="0.00" departDelay="0.93" arrival="157.00" arrivalLane="124861817#2_0" arrivalPos="116.20" arrivalSpeed="11.92" duration="77.00" routeLength="803.36" waitingTime="0.00" waitingCount="0" stopTime="0.00" timeLoss="18.50" rerouteNo="1" devices="tripinfo_motorcycle16 routing_motorcycle16" vType="motorcycle_motorcycle" speedFactor="1.02" vaporized=""/>
    <tripinfo id="motorcycle13" depart="65.00" departLane="317349751#5_0" departPos="2.30" departSpeed="0.00" departDelay="0.76" arrival="161.00" arrivalLane="-725363522#1_0" arrivalPos="180.84" arrivalSpeed="11.65" duration="96.00" routeLength="1323.38" waitingTime="0.00" waitingCount="0" stopTime="0.00" timeLoss="21.38" rerouteNo="1" devices="tripinfo_motorcycle13 routing_motorcycle13" vType="motorcycle_motorcycle" speedFactor="0.94" vaporized=""/>
    <tripinfo id="veh6" depart="30.00" departLane="124861812#0_0" departPos="5.10" departSpeed="16.24" departDelay="0.35" arrival="161.00" arrivalLane="22842320#1_0" arrivalPos="18.38" arrivalSpeed="15.36" duration="131.00" routeLength="2123.51" waitingTime="0.00" waitingCount="0" stopTime="0.00" timeLoss="39.76" rerouteNo="1" devices="tripinfo_veh6 routing_veh6" vType="veh_passenger" speedFactor="1.17" vaporized=""/>
    <tripinfo id="bus5" depart="74.00" departLane="-1238879358#3_0" departPos="12.10" departSpeed="0.00" departDelay="0.23" arrival="165.00" arrivalLane="-124861803#3_0" arrivalPos="15.84" arrivalSpeed="8.34" duration="91.00" routeLength="1114.23" waitingTime="0.00" waitingCount="0" stopTime="0.00" timeLoss="41.90" rerouteNo="1" devices="tripinfo_bus5 routing_bus5" vType="bus_bus" speedFactor="1.00" vaporized=""/>
    <tripinfo id="motorcycle15" depart="75.00" departLane="1274598669#0_0" departPos="2.30" departSpeed="0.00" departDelay="0.88" arrival="166.00" arrivalLane="-124858284#0_0" arrivalPos="68.08" arrivalSpeed="15.74" duration="91.00" routeLength="1425.32" waitingTime="0.00" waitingCount="0" stopTime="0.00" timeLoss="27.39" rerouteNo="1" devices="tripinfo_motorcycle15 routing_motorcycle15" vType="motorcycle_motorcycle" speedFactor="1.16" vaporized=""/>
    <tripinfo id="truck4" depart="60.00" departLane="-317349751#2_0" departPos="2.16" departSpeed="0.00" departDelay="0.70" arrival="167.00" arrivalLane="439133784#1_0" arrivalPos="44.97" arrivalSpeed="10.97" duration="107.00" routeLength="827.06" waitingTime="0.00" waitingCount="0" stopTime="0.00" timeLoss="33.85" rerouteNo="1" devices="tripinfo_truck4 routing_truck4" vType="truck_truck" speedFactor="1.01" vaporized=""/>
    <tripinfo id="motorcycle14" depart="70.00" departLane="-788485782#5_0" departPos="2.30" departSpeed="0.00" departDelay="0.82" arrival="169.00" arrivalLane="1274598669#1_0" arrivalPos="183.71" arrivalSpeed="23.61" duration="99.00" routeLength="988.50" waitingTime="4.00" waitingCount="1" stopTime="0.00" timeLoss="28.06" rerouteNo="1" devices="tripinfo_motorcycle14 routing_motorcycle14" vType="motorcycle_motorcycle" speedFactor="0.94" vaporized=""/>
    <tripinfo id="veh16" depart="80.00" departLane="124858284#2_0" departPos="5.10" departSpeed="0.00" departDelay="0.93" arrival="169.00" arrivalLane="-1303443733_0" arrivalPos="20.40" arrivalSpeed="10.96" duration="89.00" routeLength="1153.29" waitingTime="0.00" waitingCount="0" stopTime="0.00" timeLoss="27.72" rerouteNo="1" devices="tripinfo_veh16 routing_veh16" vType="veh_passenger" speedFactor="1.12" vaporized=""/>
    <tripinfo id="motorcycle18" depart="89.00" departLane="1274598669#0_0" departPos="2.30" departSpeed="0.00" departDelay="0.05" arrival="170.00" arrivalLane="725293625#1_0" arrivalPos="20.23" arrivalSpeed="21.22" duration="81.00" routeLength="1309.88" waitingTime="0.00" waitingCount="0" stopTime="0.00" timeLoss="18.09" rerouteNo="1" devices="tripinfo_motorcycle18 routing_motorcycle18" vType="motorcycle_motorcycle" speedFactor="0.97" vaporized=""/>
    <tripinfo id="veh25" depart="124.00" departLane="-788485782#7_0" departPos="5.10" departSpeed="0.00" departDelay="0.46" arrival="172.00" arrivalLane="317349751#3_0" arrivalPos="29.98" arrivalSpeed="13.37" duration="48.00" routeLength="420.75" waitingTime="0.00" waitingCount="0" stopTime="0.00" timeLoss="15.13" rerouteNo="1" devices="tripinfo_veh25 routing_veh25" vType="veh_passenger" speedFactor="1.02" vaporized=""/>
    <tripinfo id="motorcycle21" depart="104.00" departLane="-1189813847_0" departPos="2.30" departSpeed="12.12" departDelay="0.23" arrival="174.00" arrivalLane="124861825#1_0" arrivalPos="40.96" arrivalSpeed="9.79" duration="70.00" routeLength="728.11" waitingTime="0.00" waitingCount="0" stopTime="0.00" timeLoss="21.97" rerouteNo="1" devices="tripinfo_motorcycle21 routing_motorcycle21" vType="motorcycle_motorcycle" speedFactor="0.87" vaporized=""/>
    <tripinfo id="motorcycle20" depart="99.00" departLane="-1189813847_0" departPos="2.30" departSpeed="11.47" departDelay="0.17" arrival="176.00" arrivalLane="-124861823#2_0" arrivalPos="53.86" arrivalSpeed="15.73" duration="77.00" routeLength="869.66" waitingTime="2.00" waitingCount="1" stopTime="0.00" timeLoss="21.73" rerouteNo="1" devices="tripinfo_motorcycle20 routing_motorcycle20" vType="motorcycle_motorcycle" speedFactor="0.83" vaporized=""/>
    <tripinfo id="motorcycle26" depart="132.00" departLane="-214085922#2_0" departPos="2.30" departSpeed="0.00" departDelay="3.52" arrival="176.00" arrivalLane="1338550401_0" arrivalPos="15.86" arrivalSpeed="13.39" duration="44.00" routeLength="694.26" waitingTime="0.00" waitingCount="0" stopTime="0.00" timeLoss="12.24" rerouteNo="1" devices="tripinfo_motorcycle26 routing_motorcycle26" vType="motorcycle_motorcycle" speedFactor="1.18" vaporized=""/>
    <tripinfo id="motorcycle19" depart="98.00" departLane="725363523#2_0" departPos="2.30" departSpeed="0.00" departDelay="4.11" arrival="177.00" arrivalLane="124861817#1_0" arrivalPos="45.25" arrivalSpeed="9.73" duration="79.00" routeLength="753.60" waitingTime="2.00" waitingCount="1" stopTime="0.00" timeLoss="20.67" rerouteNo="1" devices="tripinfo_motorcycle19 routing_motorcycle19" vType="motorcycle_motorcycle" speedFactor="0.89" vaporized=""/>
    <tripinfo id="veh23" depart="114.00" departLane="-1189813847_0" departPos="5.10" departSpeed="14.45" departDelay="0.34" arrival="178.00" arrivalLane="608078458_0" arrivalPos="109.11" arrivalSpeed="14.07" duration="64.00" routeLength="646.45" waitingTime="0.00" waitingCount="0" stopTime="0.00" timeLoss="19.97" rerouteNo="1" devices="tripinfo_veh23 routing_veh23" vType="veh_passenger" speedFactor="1.04" vaporized=""/>
    <tripinfo id="motorcycle27" depart="134.00" departLane="-665946598_0" departPos="2.30" departSpeed="0.00" departDelay="0.58" arrival="180.00" arrivalLane="665946597#2_0" arrivalPos="90.86" arrivalSpeed="11.53" duration="46.00" routeLength="475.32" waitingTime="13.00" waitingCount="1" stopTime="0.00" timeLoss="29.17" rerouteNo="1" devices="tripinfo_motorcycle27 routing_motorcycle27" vType="motorcycle_motorcycle" speedFactor="1.15" vaporized=""/>
    <tripinfo id="veh21" depart="104.00" departLane="-214085908#1_0" departPos="5.10" departSpeed="12.60" departDelay="0.23" arrival="180.00" arrivalLane="1126750041#1_0" arrivalPos="70.15" arrivalSpeed="1.33" duration="76.00" routeLength="384.31" waitingTime="0.00" waitingCount="0" stopTime="0.00" timeLoss="19.66" rerouteNo="1" devices="tripinfo_veh21 routing_veh21" vType="veh_passenger" speedFactor="0.91" vaporized=""/>
    <tripinfo id="bus6" depart="90.00" departLane="214085919#1_0" departPos="12.10" departSpeed="0.00" departDelay="1.48" arrival="185.00" arrivalLane="151522858_0" arrivalPos="102.18" arrivalSpeed="14.86" duration="95.00" routeLength="1172.20" waitingTime="0.00" waitingCount="0" stopTime="0.00" timeLoss="37.16" rerouteNo="1" devices="tripinfo_bus6 routing_bus6" vType="bus_bus" speedFactor="1.00" vaporized=""/>
    <tripinfo id="veh22" depart="109.00" departLane="124861803#0_0" departPos="5.10" departSpeed="12.70" departDelay="0.28" arrival="185.00" arrivalLane="665546552_0" arrivalPos="42.23" arrivalSpeed="11.44" duration="76.00" routeLength="728.29" waitingTime="3.00" waitingCount="1" stopTime="0.00" timeLoss="17.24" rerouteNo="1" devices="tripinfo_veh22 routing_veh22" vType="veh_passenger" speedFactor="0.91" vaporized=""/>
    <tripinfo id="veh5" depart="25.00" departLane="-1126750041#1_0" departPos="5.10" departSpeed="2.38" departDelay="0.29" arrival="190.00" arrivalLane="1121687687_0" arrivalPos="45.30" arrivalSpeed="17.92" duration="165.00" routeLength="1387.86" waitingTime="1.00" waitingCount="1" stopTime="0.00" timeLoss="40.96" rerouteNo="1" devices="tripinfo_veh5 routing_veh5" vType="veh_passenger" speedFactor="0.85" vaporized=""/>
    <tripinfo id="truck5" depart="75.00" departLane="-1107662879_0" departPos="7.20" departSpeed="0.00" departDelay="0.88" arrival="195.00" arrivalLane="1238879358#1_0" arrivalPos="42.04" arrivalSpeed="11.08" duration="120.00" routeLength="883.07" waitingTime="20.00" waitingCount="2" stopTime="0.00" timeLoss="62.15" rerouteNo="1" devices="tripinfo_truck5 routing_truck5" vType="truck_truck" speedFactor="0.95" vaporized=""/>
    <tripinfo id="motorcycle25" depart="124.00" departLane="124861824#0_0" departPos="2.30" departSpeed="0.00" departDelay="0.46" arrival="210.00" arrivalLane="788485782#3_0" arrivalPos="87.36" arrivalSpeed="11.62" duration="86.00" routeLength="882.76" waitingTime="0.00" waitingCount="0" stopTime="0.00" timeLoss="14.60" rerouteNo="1" devices="tripinfo_motorcycle25 routing_motorcycle25" vType="motorcycle_motorcycle" speedFactor="0.93" vaporized=""/>
    <tripinfo id="veh27" depart="134.00" departLane="-1265177026#0_0" departPos="5.10" departSpeed="0.00" departDelay="0.58" arrival="211.00" arrivalLane="1171539007_0" arrivalPos="1.11" arrivalSpeed="7.31" duration="77.00" routeLength="909.50" waitingTime="0.00" waitingCount="0" stopTime="0.00" timeLoss="24.21" rerouteNo="1" devices="tripinfo_veh27 routing_veh27" vType="veh_passenger" speedFactor="0.94" vaporized=""/>