<?xml version="1.0" encoding="UTF-8"?>

<!-- generated on 2025-11-02 04:21:24 by Eclipse SUMO sumo Version 1.24.0
<sumoConfiguration xmlns:xsi="http://www.w3.org/2001/XMLSchema-instance" xsi:noNamespaceSchemaLocation="http://sumo.dlr.de/xsd/sumoConfiguration.xsd">

    <input>
        <net-file value="sumo_files/mulund/osm.net.xml.gz"/>
        <route-files value="sumo_files/mulund/osm.bus.trips.xml,sumo_files/mulund/osm.motorcycle.trips.xml,sumo_files/mulund/osm.passenger.trips.xml,sumo_files/mulund/osm.truck.trips.xml"/>
        <additional-files value="sumo_files/mulund/osm.poly.xml.gz,sumo_files/mulund/output.add.xml,sumo_files/mulund/rl_traffic_lights.add.xml"/>
    </input>

    <time>
        <begin value="0"/>
        <end value="10000"/>
        <step-length value="1.0"/>
    </time>

    <processing>
        <extrapolate-departpos value="true"/>
        <ignore-route-errors value="true"/>
        <time-to-teleport value="300"/>
        <time-to-teleport.highways value="0"/>
        <max-depart-delay value="300"/>
        <eager-insert value="true"/>
    </processing>

    <routing>
        <device.rerouting.adaptation-steps value="180"/>
        <device.rerouting.adaptation-interval value="10"/>
    </routing>

    <report>
        <verbose value="false"/>
        <no-warnings value="true"/>
        <no-step-log value="true"/>
    </report>

    <traci_server>
        <remote-port value="47409"/>
    </traci_server>

</sumoConfiguration>
-->

<meandata xmlns:xsi="http://www.w3.org/2001/XMLSchema-instance" xsi:noNamespaceSchemaLocation="http://sumo.dlr.de/xsd/meandata_file.xsd">
</meandata>
