<?xml version="1.0" encoding="UTF-8"?>

<!-- generated on 2025-11-02 11:17:58 by Eclipse SUMO GUI Version 1.24.0
<sumoConfiguration xmlns:xsi="http://www.w3.org/2001/XMLSchema-instance" xsi:noNamespaceSchemaLocation="http://sumo.dlr.de/xsd/sumoConfiguration.xsd">

    <input>
        <net-file value="sumo_files/mulund/osm.net.xml.gz"/>
        <route-files value="sumo_files/mulund/osm.bus.trips.xml,sumo_files/mulund/osm.motorcycle.trips.xml,sumo_files/mulund/osm.passenger.trips.xml,sumo_files/mulund/osm.truck.trips.xml"/>
        <additional-files value="sumo_files/mulund/osm.poly.xml.gz,sumo_files/mulund/output.add.xml,sumo_files/mulund/rl_traffic_lights.add.xml"/>
    </input>

    <time>
        <begin value="0"/>
        <end value="10000"/>
        <step-length value="1.0"/>
    </time>

    <processing>
        <extrapolate-departpos value="true"/>
        <ignore-route-errors value="true"/>
        <time-to-teleport value="300"/>
        <time-to-teleport.highways value="0"/>
        <max-depart-delay value="300"/>
        <eager-insert value="true"/>
    </processing>

    <routing>
        <device.rerouting.adaptation-steps value="180"/>
        <device.rerouting.adaptation-interval value="10"/>
    </routing>

    <report>
        <verbose value="false"/>
        <no-warnings value="true"/>
        <no-step-log value="true"/>
    </report>

    <traci_server>
        <remote-port value="44187"/>
    </traci_server>

</sumoConfiguration>
-->

<meandata xmlns:xsi="http://www.w3.org/2001/XMLSchema-instance" xsi:noNamespaceSchemaLocation="http://sumo.dlr.de/xsd/meandata_file.xsd">
    <interval begin="0.00" end="3600.00" id="wizard_example">
        <edge id="-1058975065" sampledSeconds="20.67" traveltime="3.95" overlapTraveltime="4.38" density="0.16" laneDensity="0.16" occupancy="0.05" waitingTime="0.00" timeLoss="7.08" speed="9.22" speedRelative="0.66" departed="1" arrived="1" entered="4" left="4" laneChangedFrom="0" laneChangedTo="0"/>
        <edge id="-1071051105#0" sampledSeconds="0.00" departed="0" arrived="0" entered="0" left="0" laneChangedFrom="0" laneChangedTo="0"/>
        <edge id="-1071051105#1" sampledSeconds="0.00" departed="0" arrived="0" entered="0" left="0" laneChangedFrom="0" laneChangedTo="0"/>
        <edge id="-1071051106" sampledSeconds="0.00" departed="0" arrived="0" entered="0" left="0" laneChangedFrom="0" laneChangedTo="0"/>
        <edge id="-1074140523" sampledSeconds="0.00" departed="0" arrived="0" entered="0" left="0" laneChangedFrom="0" laneChangedTo="0"/>
        <edge id="-1074564604#0" sampledSeconds="0.00" departed="0" arrived="0" entered="0" left="0" laneChangedFrom="0" laneChangedTo="0"/>
        <edge id="-1074564604#1" sampledSeconds="0.00" departed="0" arrived="0" entered="0" left="0" laneChangedFrom="0" laneChangedTo="0"/>
        <edge id="-1085539252" sampledSeconds="7.28" traveltime="7.06" overlapTraveltime="7.47" density="0.03" laneDensity="0.03" occupancy="0.01" waitingTime="0.00" timeLoss="1.87" speed="10.43" speedRelative="0.75" departed="0" arrived="1" entered="1" left="0" laneChangedFrom="0" laneChangedTo="0"/>
        <edge id="-1085539253" sampledSeconds="0.00" departed="0" arrived="0" entered="0" left="0" laneChangedFrom="0" laneChangedTo="0"/>
        <edge id="-1085539254#0" sampledSeconds="0.00" departed="0" arrived="0" entered="0" left="0" laneChangedFrom="0" laneChangedTo="0"/>
        <edge id="-1085539254#1" sampledSeconds="0.00" departed="0" arrived="0" entered="0" left="0" laneChangedFrom="0" laneChangedTo="0"/>
        <edge id="-1088426462" sampledSeconds="0.00" departed="0" arrived="0" entered="0" left="0" laneChangedFrom="0" laneChangedTo="0"/>
        <edge id="-1090409621#1" sampledSeconds="0.00" departed="0" arrived="0" entered="0" left="0" laneChangedFrom="0" laneChangedTo="0"/>
        <edge id="-1090409622" sampledSeconds="0.00" departed="0" arrived="0" entered="0" left="0" laneChangedFrom="0" laneChangedTo="0"/>
        <edge id="-1091135990" sampledSeconds="0.00" departed="0" arrived="0" entered="0" left="0" laneChangedFrom="0" laneChangedTo="0"/>
        <edge id="-1091258062" sampledSeconds="50.85" traveltime="6.57" overlapTraveltime="6.98" density="0.19" laneDensity="0.19" occupancy="0.06" waitingTime="0.00" timeLoss="8.52" speed="10.87" speedRelative="0.78" departed="7" arrived="0" entered="0" left="7" laneChangedFrom="0" laneChangedTo="0"/>
        <edge id="-1091258063" sampledSeconds="19.92" traveltime="6.18" overlapTraveltime="6.39" density="0.07" laneDensity="0.07" occupancy="0.02" waitingTime="0.00" timeLoss="1.86" speed="12.71" speedRelative="0.91" departed="3" arrived="0" entered="0" left="3" laneChangedFrom="0" laneChangedTo="0"/>
        <edge id="-1092621396#0" sampledSeconds="39.68" traveltime="3.59" overlapTraveltime="4.43" density="0.36" laneDensity="0.36" occupancy="0.13" waitingTime="0.00" timeLoss="11.06" speed="7.78" speedRelative="0.56" departed="0" arrived="0" entered="9" left="9" laneChangedFrom="0" laneChangedTo="0"/>
        <edge id="-1092621396#1" sampledSeconds="12.13" traveltime="3.55" overlapTraveltime="3.88" density="0.08" laneDensity="0.08" occupancy="0.03" waitingTime="0.00" timeLoss="0.56" speed="12.37" speedRelative="0.89" departed="3" arrived="0" entered="0" left="3" laneChangedFrom="0" laneChangedTo="0"/>
        <edge id="-1093036737" sampledSeconds="46.14" traveltime="6.75" overlapTraveltime="7.33" density="0.17" laneDensity="0.17" occupancy="0.07" waitingTime="0.00" timeLoss="7.79" speed="11.09" speedRelative="0.80" departed="6" arrived="0" entered="0" left="6" laneChangedFrom="0" laneChangedTo="0"/>
        <edge id="-1093111413" sampledSeconds="0.00" departed="0" arrived="0" entered="0" left="0" laneChangedFrom="0" laneChangedTo="0"/>
        <edge id="-1093111414" sampledSeconds="0.00" departed="0" arrived="0" entered="0" left="0" laneChangedFrom="0" laneChangedTo="0"/>
        <edge id="-1104594356" sampledSeconds="0.00" departed="0" arrived="0" entered="0" left="0" laneChangedFrom="0" laneChangedTo="0"/>
        <edge id="-1107662879" sampledSeconds="6236.10" traveltime="74.91" overlapTraveltime="76.71" density="42.85" laneDensity="42.85" occupancy="21.07" waitingTime="4461.00" timeLoss="5000.49" speed="0.59" speedRelative="0.21" departed="0" arrived="2" entered="83" left="77" laneChangedFrom="0" laneChangedTo="0" teleported="2"/>
        <edge id="-1120031774" sampledSeconds="0.00" departed="0" arrived="0" entered="0" left="0" laneChangedFrom="0" laneChangedTo="0"/>
        <edge id="-1120031777#0" sampledSeconds="8775.49" traveltime="83.31" overlapTraveltime="88.56" density="28.34" laneDensity="28.34" occupancy="12.94" waitingTime="7353.00" timeLoss="8116.14" speed="1.02" speedRelative="0.07" departed="1" arrived="2" entered="99" left="98" laneChangedFrom="0" laneChangedTo="0"/>
        <edge id="-1120031777#2" sampledSeconds="1317.42" traveltime="17.23" overlapTraveltime="17.86" density="3.14" laneDensity="3.14" occupancy="1.59" waitingTime="523.00" timeLoss="654.04" speed="6.83" speedRelative="0.49" departed="2" arrived="1" entered="72" left="73" laneChangedFrom="0" laneChangedTo="0"/>
        <edge id="-1120031777#3" sampledSeconds="220.88" traveltime="3.10" overlapTraveltime="3.51" density="1.69" laneDensity="1.69" occupancy="0.68" waitingTime="0.00" timeLoss="28.92" speed="11.70" speedRelative="0.84" departed="0" arrived="3" entered="63" left="60" laneChangedFrom="0" laneChangedTo="0"/>
        <edge id="-1120031777#4" sampledSeconds="1157.39" traveltime="13.89" overlapTraveltime="14.50" density="1.95" laneDensity="1.95" occupancy="0.96" waitingTime="0.00" timeLoss="144.30" speed="11.72" speedRelative="0.84" departed="3" arrived="2" entered="77" left="78" laneChangedFrom="0" laneChangedTo="0"/>
        <edge id="-1120035416#0" sampledSeconds="91.62" traveltime="2.68" overlapTraveltime="3.46" density="0.65" laneDensity="0.65" occupancy="0.32" waitingTime="0.00" timeLoss="34.68" speed="13.12" speedRelative="0.59" departed="1" arrived="1" entered="26" left="26" laneChangedFrom="0" laneChangedTo="0"/>
        <edge id="-1120036792#0" sampledSeconds="472.49" traveltime="4.60" overlapTraveltime="5.67" density="1.96" laneDensity="1.96" occupancy="1.11" waitingTime="10.00" timeLoss="153.51" speed="13.00" speedRelative="0.59" departed="3" arrived="3" entered="81" left="81" laneChangedFrom="0" laneChangedTo="0"/>
        <edge id="-1120036792#1" sampledSeconds="273.40" traveltime="2.39" overlapTraveltime="2.85" density="1.97" laneDensity="1.97" occupancy="1.06" waitingTime="0.00" timeLoss="69.28" speed="15.84" speedRelative="0.71" departed="1" arrived="4" entered="96" left="93" laneChangedFrom="0" laneChangedTo="0"/>
        <edge id="-1120036792#2" sampledSeconds="662.31" traveltime="5.42" overlapTraveltime="6.00" density="2.19" laneDensity="2.19" occupancy="1.31" waitingTime="2.00" timeLoss="195.43" speed="15.13" speedRelative="0.68" departed="1" arrived="3" entered="111" left="108" laneChangedFrom="0" laneChangedTo="0"/>
        <edge id="-1120160502" sampledSeconds="0.00" departed="0" arrived="0" entered="0" left="0" laneChangedFrom="0" laneChangedTo="0"/>
        <edge id="-1120175943" sampledSeconds="0.00" departed="0" arrived="0" entered="0" left="0" laneChangedFrom="0" laneChangedTo="0"/>
        <edge id="-1120175944" sampledSeconds="0.00" departed="0" arrived="0" entered="0" left="0" laneChangedFrom="0" laneChangedTo="0"/>
        <edge id="-1120175945" sampledSeconds="0.00" departed="0" arrived="0" entered="0" left="0" laneChangedFrom="0" laneChangedTo="0"/>
        <edge id="-1120175948" sampledSeconds="0.00" departed="0" arrived="0" entered="0" left="0" laneChangedFrom="0" laneChangedTo="0"/>
        <edge id="-1120175949" sampledSeconds="0.00" departed="0" arrived="0" entered="0" left="0" laneChangedFrom="0" laneChangedTo="0"/>
        <edge id="-1120175950" sampledSeconds="0.00" departed="0" arrived="0" entered="0" left="0" laneChangedFrom="0" laneChangedTo="0"/>
        <edge id="-1120175952" sampledSeconds="0.00" departed="0" arrived="0" entered="0" left="0" laneChangedFrom="0" laneChangedTo="0"/>
        <edge id="-1120175956" sampledSeconds="0.00" departed="0" arrived="0" entered="0" left="0" laneChangedFrom="0" laneChangedTo="0"/>
        <edge id="-1120175972" sampledSeconds="120.68" traveltime="3.80" overlapTraveltime="4.50" density="0.82" laneDensity="0.82" occupancy="0.38" waitingTime="2.00" timeLoss="35.36" speed="10.18" speedRelative="0.73" departed="26" arrived="0" entered="0" left="26" laneChangedFrom="0" laneChangedTo="0"/>
        <edge id="-1120175973" sampledSeconds="0.00" departed="0" arrived="0" entered="0" left="0" laneChangedFrom="0" laneChangedTo="0"/>
        <edge id="-1120175974" sampledSeconds="0.00" departed="0" arrived="0" entered="0" left="0" laneChangedFrom="0" laneChangedTo="0"/>
        <edge id="-1120175975" sampledSeconds="0.00" departed="0" arrived="0" entered="0" left="0" laneChangedFrom="0" laneChangedTo="0"/>
        <edge id="-1120175977" sampledSeconds="0.00" departed="0" arrived="0" entered="0" left="0" laneChangedFrom="0" laneChangedTo="0"/>
        <edge id="-1120175980#0" sampledSeconds="0.00" departed="0" arrived="0" entered="0" left="0" laneChangedFrom="0" laneChangedTo="0"/>
        <edge id="-1120175980#1" sampledSeconds="0.00" departed="0" arrived="0" entered="0" left="0" laneChangedFrom="0" laneChangedTo="0"/>
        <edge id="-1120175981" sampledSeconds="0.00" departed="0" arrived="0" entered="0" left="0" laneChangedFrom="0" laneChangedTo="0"/>
        <edge id="-1120175987" sampledSeconds="151.86" traveltime="5.35" overlapTraveltime="5.64" density="0.43" laneDensity="0.43" occupancy="0.23" waitingTime="0.00" timeLoss="23.59" speed="18.55" speedRelative="0.83" departed="2" arrived="2" entered="25" left="25" laneChangedFrom="0" laneChangedTo="0"/>
        <edge id="-1120175996" sampledSeconds="0.00" departed="0" arrived="0" entered="0" left="0" laneChangedFrom="0" laneChangedTo="0"/>
        <edge id="-1120175997" sampledSeconds="162.04" traveltime="5.41" overlapTraveltime="6.15" density="0.73" laneDensity="0.73" occupancy="0.37" waitingTime="0.00" timeLoss="25.64" speed="10.91" speedRelative="0.79" departed="22" arrived="0" entered="4" left="26" laneChangedFrom="0" laneChangedTo="0"/>
        <edge id="-1120729741" sampledSeconds="0.00" departed="0" arrived="0" entered="0" left="0" laneChangedFrom="0" laneChangedTo="0"/>
        <edge id="-1121006711" sampledSeconds="0.00" departed="0" arrived="0" entered="0" left="0" laneChangedFrom="0" laneChangedTo="0"/>
        <edge id="-1121147900#0" sampledSeconds="0.00" departed="0" arrived="0" entered="0" left="0" laneChangedFrom="0" laneChangedTo="0"/>
        <edge id="-1121147900#1" sampledSeconds="0.00" departed="0" arrived="0" entered="0" left="0" laneChangedFrom="0" laneChangedTo="0"/>
        <edge id="-1121147901" sampledSeconds="0.00" departed="0" arrived="0" entered="0" left="0" laneChangedFrom="0" laneChangedTo="0"/>
        <edge id="-1121230249" sampledSeconds="0.00" departed="0" arrived="0" entered="0" left="0" laneChangedFrom="0" laneChangedTo="0"/>
        <edge id="-1121230251" sampledSeconds="0.00" departed="0" arrived="0" entered="0" left="0" laneChangedFrom="0" laneChangedTo="0"/>
        <edge id="-1121687688" sampledSeconds="168.89" traveltime="11.72" overlapTraveltime="12.12" density="0.36" laneDensity="0.36" occupancy="0.14" waitingTime="12.00" timeLoss="32.35" speed="11.15" speedRelative="0.80" departed="2" arrived="2" entered="12" left="12" laneChangedFrom="0" laneChangedTo="0"/>
        <edge id="-1122104213" sampledSeconds="0.00" departed="0" arrived="0" entered="0" left="0" laneChangedFrom="0" laneChangedTo="0"/>
        <edge id="-1124140020" sampledSeconds="0.00" departed="0" arrived="0" entered="0" left="0" laneChangedFrom="0" laneChangedTo="0"/>
        <edge id="-1126532282" sampledSeconds="1343.55" traveltime="46.14" overlapTraveltime="47.53" density="3.87" laneDensity="3.87" occupancy="1.87" waitingTime="0.00" timeLoss="339.89" speed="2.13" speedRelative="0.77" departed="21" arrived="0" entered="8" left="29" laneChangedFrom="0" laneChangedTo="0"/>
        <edge id="-1126732420" sampledSeconds="0.00" departed="0" arrived="0" entered="0" left="0" laneChangedFrom="0" laneChangedTo="0"/>
        <edge id="-1126732421" sampledSeconds="0.00" departed="0" arrived="0" entered="0" left="0" laneChangedFrom="0" laneChangedTo="0"/>
        <edge id="-1126732422" sampledSeconds="0.00" departed="0" arrived="0" entered="0" left="0" laneChangedFrom="0" laneChangedTo="0"/>
        <edge id="-1126732432#0" sampledSeconds="0.00" departed="0" arrived="0" entered="0" left="0" laneChangedFrom="0" laneChangedTo="0"/>
        <edge id="-1126732432#1" sampledSeconds="0.00" departed="0" arrived="0" entered="0" left="0" laneChangedFrom="0" laneChangedTo="0"/>
        <edge id="-1126732432#2" sampledSeconds="0.00" departed="0" arrived="0" entered="0" left="0" laneChangedFrom="0" laneChangedTo="0"/>
        <edge id="-1126732432#3" sampledSeconds="0.00" departed="0" arrived="0" entered="0" left="0" laneChangedFrom="0" laneChangedTo="0"/>
        <edge id="-1126750017" sampledSeconds="0.00" departed="0" arrived="0" entered="0" left="0" laneChangedFrom="0" laneChangedTo="0"/>
        <edge id="-1126750036" sampledSeconds="144.00" traveltime="7.78" overlapTraveltime="8.72" density="2.35" laneDensity="2.35" occupancy="0.86" waitingTime="0.00" timeLoss="44.04" speed="2.42" speedRelative="0.87" departed="19" arrived="0" entered="0" left="19" laneChangedFrom="0" laneChangedTo="0"/>
        <edge id="-1126750037" sampledSeconds="0.00" departed="0" arrived="0" entered="0" left="0" laneChangedFrom="0" laneChangedTo="0"/>
        <edge id="-1126750040" sampledSeconds="0.00" departed="0" arrived="0" entered="0" left="0" laneChangedFrom="0" laneChangedTo="0"/>
        <edge id="-1126750041#0" sampledSeconds="53.92" traveltime="0.05" overlapTraveltime="2.02" density="149.79" laneDensity="149.79" occupancy="1.46" waitingTime="0.00" timeLoss="38.57" speed="3.37" speedRelative="1.21" departed="1" arrived="5" entered="41" left="37" laneChangedFrom="0" laneChangedTo="0"/>
        <edge id="-1126750041#1" sampledSeconds="1510.19" traveltime="35.78" overlapTraveltime="37.63" density="5.58" laneDensity="5.58" occupancy="2.25" waitingTime="1.00" timeLoss="354.60" speed="2.11" speedRelative="0.76" departed="23" arrived="0" entered="18" left="41" laneChangedFrom="0" laneChangedTo="0"/>
        <edge id="-1126750042" sampledSeconds="315.58" traveltime="7.76" overlapTraveltime="9.73" density="1.14" laneDensity="1.14" occupancy="0.47" waitingTime="0.00" timeLoss="75.66" speed="8.36" speedRelative="0.60" departed="6" arrived="0" entered="27" left="33" laneChangedFrom="0" laneChangedTo="0"/>
        <edge id="-1126864976" sampledSeconds="0.00" departed="0" arrived="0" entered="0" left="0" laneChangedFrom="0" laneChangedTo="0"/>
        <edge id="-1127681388" sampledSeconds="0.00" departed="0" arrived="0" entered="0" left="0" laneChangedFrom="0" laneChangedTo="0"/>
        <edge id="-1127854503" sampledSeconds="0.00" departed="0" arrived="0" entered="0" left="0" laneChangedFrom="0" laneChangedTo="0"/>
        <edge id="-1132467157" sampledSeconds="0.00" departed="0" arrived="0" entered="0" left="0" laneChangedFrom="0" laneChangedTo="0"/>
        <edge id="-1133787479" sampledSeconds="359.28" traveltime="13.50" overlapTraveltime="14.48" density="1.56" laneDensity="1.56" occupancy="0.83" waitingTime="189.00" timeLoss="229.89" speed="4.81" speedRelative="0.35" departed="25" arrived="0" entered="0" left="23" laneChangedFrom="0" laneChangedTo="0"/>
        <edge id="-1147810238" sampledSeconds="21.82" traveltime="3.38" overlapTraveltime="4.20" density="0.17" laneDensity="0.17" occupancy="0.07" waitingTime="0.00" timeLoss="5.33" speed="9.34" speedRelative="0.67" departed="5" arrived="0" entered="0" left="5" laneChangedFrom="0" laneChangedTo="0"/>
        <edge id="-1147810239" sampledSeconds="46.64" traveltime="3.15" overlapTraveltime="3.78" density="0.45" laneDensity="0.45" occupancy="0.15" waitingTime="0.00" timeLoss="14.45" speed="8.63" speedRelative="0.62" departed="9" arrived="0" entered="2" left="11" laneChangedFrom="0" laneChangedTo="0"/>
        <edge id="-1158472550" sampledSeconds="0.00" departed="0" arrived="0" entered="0" left="0" laneChangedFrom="0" laneChangedTo="0"/>
        <edge id="-1161004434#0" sampledSeconds="106.39" traveltime="6.38" overlapTraveltime="6.71" density="0.36" laneDensity="0.36" occupancy="0.15" waitingTime="0.00" timeLoss="8.37" speed="12.90" speedRelative="0.93" departed="0" arrived="16" entered="16" left="0" laneChangedFrom="0" laneChangedTo="0"/>
        <edge id="-1161004434#1" sampledSeconds="182.60" traveltime="8.31" overlapTraveltime="8.81" density="0.56" laneDensity="0.56" occupancy="0.25" waitingTime="0.00" timeLoss="41.75" speed="10.75" speedRelative="0.77" departed="4" arrived="2" entered="17" left="19" laneChangedFrom="0" laneChangedTo="0"/>
        <edge id="-1171539006" sampledSeconds="71.51" traveltime="0.91" overlapTraveltime="2.00" density="3.47" laneDensity="3.47" occupancy="1.04" waitingTime="0.00" timeLoss="41.44" speed="6.36" speedRelative="0.23" departed="2" arrived="2" entered="41" left="41" laneChangedFrom="0" laneChangedTo="0"/>
        <edge id="-1171540751" sampledSeconds="709.29" traveltime="2.66" overlapTraveltime="3.51" density="18.01" laneDensity="18.01" occupancy="7.93" waitingTime="251.00" timeLoss="581.38" speed="4.97" speedRelative="0.18" departed="1" arrived="1" entered="208" left="208" laneChangedFrom="0" laneChangedTo="0"/>
        <edge id="-1175243333" sampledSeconds="72.50" traveltime="3.97" overlapTraveltime="4.71" density="0.58" laneDensity="0.58" occupancy="0.25" waitingTime="0.00" timeLoss="26.68" speed="8.48" speedRelative="0.61" departed="0" arrived="12" entered="16" left="4" laneChangedFrom="0" laneChangedTo="0"/>
        <edge id="-1175243334" sampledSeconds="121.07" traveltime="8.36" overlapTraveltime="9.71" density="0.86" laneDensity="0.86" occupancy="0.58" waitingTime="53.00" timeLoss="78.35" speed="4.76" speedRelative="0.34" departed="3" arrived="3" entered="11" left="10" laneChangedFrom="0" laneChangedTo="0"/>
        <edge id="-1175268521" sampledSeconds="193.51" traveltime="9.19" overlapTraveltime="10.33" density="0.58" laneDensity="0.58" occupancy="0.32" waitingTime="1.00" timeLoss="50.12" speed="9.57" speedRelative="0.69" departed="3" arrived="0" entered="16" left="19" laneChangedFrom="0" laneChangedTo="0"/>
        <edge id="-1175268522" sampledSeconds="0.00" departed="0" arrived="0" entered="0" left="0" laneChangedFrom="0" laneChangedTo="0"/>
        <edge id="-1175829716" sampledSeconds="239.26" traveltime="47.53" overlapTraveltime="49.22" density="0.71" laneDensity="0.71" occupancy="0.23" waitingTime="0.00" timeLoss="63.43" speed="1.97" speedRelative="0.71" departed="0" arrived="5" entered="5" left="0" laneChangedFrom="0" laneChangedTo="0"/>
        <edge id="-1176129290" sampledSeconds="0.00" departed="0" arrived="0" entered="0" left="0" laneChangedFrom="0" laneChangedTo="0"/>
        <edge id="-1176131828" sampledSeconds="52.15" traveltime="7.95" overlapTraveltime="8.33" density="0.15" laneDensity="0.15" occupancy="0.04" waitingTime="0.00" timeLoss="6.38" speed="11.62" speedRelative="0.84" departed="6" arrived="0" entered="0" left="6" laneChangedFrom="0" laneChangedTo="0"/>
        <edge id="-1176132762#0" sampledSeconds="490.39" traveltime="4.76" overlapTraveltime="5.75" density="3.29" laneDensity="3.29" occupancy="1.79" waitingTime="0.00" timeLoss="181.85" speed="8.34" speedRelative="0.60" departed="1" arrived="0" entered="85" left="86" laneChangedFrom="0" laneChangedTo="0"/>
        <edge id="-1176132762#1" sampledSeconds="347.97" traveltime="3.30" overlapTraveltime="4.10" density="2.76" laneDensity="2.76" occupancy="1.50" waitingTime="0.00" timeLoss="70.30" speed="10.14" speedRelative="0.73" departed="7" arrived="2" entered="80" left="85" laneChangedFrom="0" laneChangedTo="0"/>
        <edge id="-1176132762#2" sampledSeconds="303.15" traveltime="3.25" overlapTraveltime="3.71" density="2.00" laneDensity="2.00" occupancy="1.05" waitingTime="0.00" timeLoss="21.87" speed="13.00" speedRelative="0.94" departed="2" arrived="2" entered="80" left="80" laneChangedFrom="0" laneChangedTo="0"/>
        <edge id="-1176132762#3" sampledSeconds="614.63" traveltime="7.15" overlapTraveltime="7.62" density="1.93" laneDensity="1.93" occupancy="1.10" waitingTime="0.00" timeLoss="68.50" speed="12.45" speedRelative="0.90" departed="4" arrived="1" entered="77" left="80" laneChangedFrom="0" laneChangedTo="0"/>
        <edge id="-1176132762#4" sampledSeconds="100.81" traveltime="0.68" overlapTraveltime="1.45" density="3.41" laneDensity="3.41" occupancy="1.34" waitingTime="0.00" timeLoss="24.47" speed="10.61" speedRelative="0.76" departed="8" arrived="1" entered="70" left="77" laneChangedFrom="0" laneChangedTo="0"/>
        <edge id="-1176132762#5" sampledSeconds="681.70" traveltime="8.95" overlapTraveltime="9.45" density="1.97" laneDensity="1.97" occupancy="1.18" waitingTime="0.00" timeLoss="153.51" speed="10.86" speedRelative="0.78" departed="7" arrived="3" entered="66" left="70" laneChangedFrom="0" laneChangedTo="0"/>
        <edge id="-1176132762#6" sampledSeconds="113.49" traveltime="4.45" overlapTraveltime="4.82" density="0.53" laneDensity="0.53" occupancy="0.25" waitingTime="0.00" timeLoss="5.86" speed="13.24" speedRelative="0.95" departed="23" arrived="0" entered="0" left="23" laneChangedFrom="0" laneChangedTo="0"/>
        <edge id="-1176133876" sampledSeconds="0.00" departed="0" arrived="0" entered="0" left="0" laneChangedFrom="0" laneChangedTo="0"/>
        <edge id="-1177177068#0" sampledSeconds="38.29" traveltime="0.04" overlapTraveltime="1.73" density="53.18" laneDensity="53.18" occupancy="1.03" waitingTime="0.00" timeLoss="15.51" speed="4.48" speedRelative="0.32" departed="5" arrived="0" entered="27" left="32" laneChangedFrom="0" laneChangedTo="0"/>
        <edge id="-1177177068#1" sampledSeconds="69.25" traveltime="3.04" overlapTraveltime="3.99" density="0.58" laneDensity="0.58" occupancy="0.29" waitingTime="2.00" timeLoss="19.17" speed="9.92" speedRelative="0.71" departed="17" arrived="0" entered="2" left="18" laneChangedFrom="0" laneChangedTo="0"/>
        <edge id="-1177177536#0" sampledSeconds="683.79" traveltime="16.26" overlapTraveltime="18.38" density="13.71" laneDensity="13.71" occupancy="7.04" waitingTime="541.00" timeLoss="616.06" speed="1.05" speedRelative="0.08" departed="2" arrived="1" entered="38" left="39" laneChangedFrom="0" laneChangedTo="0"/>
        <edge id="-1177177536#1" sampledSeconds="83.20" traveltime="4.29" overlapTraveltime="4.45" density="1.16" laneDensity="1.16" occupancy="0.33" waitingTime="40.00" timeLoss="51.10" speed="5.18" speedRelative="0.37" departed="12" arrived="0" entered="10" left="19" laneChangedFrom="0" laneChangedTo="0"/>
        <edge id="-1177178388" sampledSeconds="0.00" departed="0" arrived="0" entered="0" left="0" laneChangedFrom="0" laneChangedTo="0"/>
        <edge id="-1177178389#0" sampledSeconds="7362.19" traveltime="28.73" overlapTraveltime="32.69" density="36.51" laneDensity="36.51" occupancy="19.70" waitingTime="4859.07" timeLoss="6726.94" speed="1.90" speedRelative="0.09" departed="5" arrived="2" entered="225" left="224" laneChangedFrom="0" laneChangedTo="0"/>
        <edge id="-1177178389#1" sampledSeconds="4407.03" traveltime="18.30" overlapTraveltime="19.18" density="37.21" laneDensity="37.21" occupancy="17.91" waitingTime="3183.00" timeLoss="4002.82" speed="2.02" speedRelative="0.09" departed="0" arrived="5" entered="233" left="225" laneChangedFrom="0" laneChangedTo="0"/>
        <edge id="-1177178389#2" sampledSeconds="3171.94" traveltime="10.33" overlapTraveltime="12.46" density="36.35" laneDensity="36.35" occupancy="21.64" waitingTime="2202.00" timeLoss="2783.73" speed="2.47" speedRelative="0.11" departed="1" arrived="0" entered="260" left="260" laneChangedFrom="0" laneChangedTo="0"/>
        <edge id="-1186853110" sampledSeconds="54.26" traveltime="8.03" overlapTraveltime="8.82" density="0.17" laneDensity="0.17" occupancy="0.08" waitingTime="0.00" timeLoss="9.23" speed="10.50" speedRelative="0.76" departed="6" arrived="0" entered="0" left="6" laneChangedFrom="0" laneChangedTo="0"/>
        <edge id="-1187198007" sampledSeconds="0.00" departed="0" arrived="0" entered="0" left="0" laneChangedFrom="0" laneChangedTo="0"/>
        <edge id="-1187806250" sampledSeconds="752.54" traveltime="24.58" overlapTraveltime="21.72" density="17.11" laneDensity="17.11" occupancy="4.58" waitingTime="622.00" timeLoss="698.95" speed="0.70" speedRelative="0.05" departed="28" arrived="0" entered="23" left="38" laneChangedFrom="0" laneChangedTo="0" teleported="1"/>
        <edge id="-1187808932" sampledSeconds="87.91" traveltime="5.25" overlapTraveltime="5.58" density="0.40" laneDensity="0.40" occupancy="0.16" waitingTime="0.00" timeLoss="14.93" speed="11.76" speedRelative="0.85" departed="0" arrived="16" entered="16" left="0" laneChangedFrom="0" laneChangedTo="0"/>
        <edge id="-1187809384" sampledSeconds="0.00" departed="0" arrived="0" entered="0" left="0" laneChangedFrom="0" laneChangedTo="0"/>
        <edge id="-1187810658" sampledSeconds="0.00" departed="0" arrived="0" entered="0" left="0" laneChangedFrom="0" laneChangedTo="0"/>
        <edge id="-1187813836" sampledSeconds="0.00" departed="0" arrived="0" entered="0" left="0" laneChangedFrom="0" laneChangedTo="0"/>
        <edge id="-1187813837" sampledSeconds="0.00" departed="0" arrived="0" entered="0" left="0" laneChangedFrom="0" laneChangedTo="0"/>
        <edge id="-1187815339" sampledSeconds="38.96" traveltime="6.56" overlapTraveltime="7.23" density="0.14" laneDensity="0.14" occupancy="0.06" waitingTime="0.00" timeLoss="5.84" speed="11.25" speedRelative="0.81" departed="5" arrived="0" entered="0" left="5" laneChangedFrom="0" laneChangedTo="0"/>
        <edge id="-1188624253" sampledSeconds="0.00" departed="0" arrived="0" entered="0" left="0" laneChangedFrom="0" laneChangedTo="0"/>
        <edge id="-1189813847" sampledSeconds="8057.39" traveltime="429.03" overlapTraveltime="451.97" density="45.03" laneDensity="45.03" occupancy="27.62" waitingTime="7738.00" timeLoss="7980.11" speed="0.12" speedRelative="0.01" departed="19" arrived="0" entered="0" left="18" laneChangedFrom="0" laneChangedTo="0" teleported="4"/>
        <edge id="-1189816981" sampledSeconds="0.00" departed="0" arrived="0" entered="0" left="0" laneChangedFrom="0" laneChangedTo="0"/>
        <edge id="-1189817147#0" sampledSeconds="14.22" traveltime="0.04" overlapTraveltime="1.46" density="19.75" laneDensity="19.75" occupancy="0.38" waitingTime="0.00" timeLoss="5.47" speed="4.23" speedRelative="0.30" departed="3" arrived="1" entered="10" left="12" laneChangedFrom="0" laneChangedTo="0"/>
        <edge id="-1189817147#1" sampledSeconds="0.00" departed="0" arrived="0" entered="0" left="0" laneChangedFrom="0" laneChangedTo="0"/>
        <edge id="-1189817147#2" sampledSeconds="15.83" traveltime="0.04" overlapTraveltime="2.04" density="21.98" laneDensity="21.98" occupancy="0.43" waitingTime="0.00" timeLoss="8.60" speed="3.52" speedRelative="0.25" departed="6" arrived="2" entered="5" left="9" laneChangedFrom="0" laneChangedTo="0"/>
        <edge id="-1189817148" sampledSeconds="46.84" traveltime="3.14" overlapTraveltime="4.19" density="0.80" laneDensity="0.80" occupancy="0.32" waitingTime="0.00" timeLoss="23.08" speed="5.21" speedRelative="0.38" departed="3" arrived="2" entered="9" left="10" laneChangedFrom="0" laneChangedTo="0"/>