<?xml version="1.0" encoding="UTF-8"?>

<!-- generated on 2025-11-02 04:02:41 by Eclipse SUMO GUI Version 1.24.0
<sumoConfiguration xmlns:xsi="http://www.w3.org/2001/XMLSchema-instance" xsi:noNamespaceSchemaLocation="http://sumo.dlr.de/xsd/sumoConfiguration.xsd">

    <input>
        <net-file value="sumo_files/mulund/osm.net.xml.gz"/>
        <route-files value="sumo_files/mulund/osm.bus.trips.xml,sumo_files/mulund/osm.motorcycle.trips.xml,sumo_files/mulund/osm.passenger.trips.xml,sumo_files/mulund/osm.truck.trips.xml"/>
        <additional-files value="sumo_files/mulund/osm.poly.xml.gz,sumo_files/mulund/output.add.xml,sumo_files/mulund/rl_traffic_lights.add.xml"/>
    </input>

    <output>
        <tripinfo-output value="sumo_files/mulund/tripinfos.xml"/>
        <statistic-output value="sumo_files/mulund/stats.xml"/>
    </output>

    <time>
        <step-length value="1.0"/>
    </time>

    <processing>
        <ignore-route-errors value="true"/>
        <time-to-teleport value="300"/>
        <tls.actuated.jam-threshold value="30"/>
    </processing>

    <routing>
        <device.rerouting.adaptation-steps value="18"/>
        <device.rerouting.adaptation-interval value="10"/>
    </routing>

    <report>
        <verbose value="true"/>
        <no-warnings value="true"/>
        <duration-log.statistics value="true"/>
        <no-step-log value="true"/>
    </report>

    <traci_server>
        <remote-port value="44905"/>
    </traci_server>

    <gui_only>
        <gui-settings-file value="sumo_files/mulund/osm.view.xml"/>
    </gui_only>

</sumoConfiguration>
-->

<tripinfos xmlns:xsi="http://www.w3.org/2001/XMLSchema-instance" xsi:noNamespaceSchemaLocation="http://sumo.dlr.de/xsd/tripinfo_file.xsd">
</tripinfos>
