<?xml version="1.0" encoding="UTF-8"?>

<!-- generated on 2025-09-21 13:27:02 by Eclipse SUMO GUI Version 1.24.0
<sumoConfiguration xmlns:xsi="http://www.w3.org/2001/XMLSchema-instance" xsi:noNamespaceSchemaLocation="http://sumo.dlr.de/xsd/sumoConfiguration.xsd">

    <input>
        <net-file value="/home/vishwajit/Workspace/SIH2025/FDRL/sumo_files/2025-09-21-13-26-55/osm.net.xml.gz"/>
        <route-files value="/home/vishwajit/Workspace/SIH2025/FDRL/sumo_files/2025-09-21-13-26-55/osm_pt.rou.xml,/home/vishwajit/Workspace/SIH2025/FDRL/sumo_files/2025-09-21-13-26-55/osm.bus.trips.xml,/home/vishwajit/Workspace/SIH2025/FDRL/sumo_files/2025-09-21-13-26-55/osm.motorcycle.trips.xml,/home/vishwajit/Workspace/SIH2025/FDRL/sumo_files/2025-09-21-13-26-55/osm.passenger.trips.xml,/home/vishwajit/Workspace/SIH2025/FDRL/sumo_files/2025-09-21-13-26-55/osm.truck.trips.xml"/>
        <additional-files value="/home/vishwajit/Workspace/SIH2025/FDRL/sumo_files/2025-09-21-13-26-55/osm.poly.xml.gz,/home/vishwajit/Workspace/SIH2025/FDRL/sumo_files/2025-09-21-13-26-55/osm_stops.add.xml,/home/vishwajit/Workspace/SIH2025/FDRL/sumo_files/2025-09-21-13-26-55/output.add.xml"/>
    </input>

    <output>
        <tripinfo-output value="/home/vishwajit/Workspace/SIH2025/FDRL/sumo_files/2025-09-21-13-26-55/tripinfos.xml"/>
        <stop-output value="/home/vishwajit/Workspace/SIH2025/FDRL/sumo_files/2025-09-21-13-26-55/stopinfos.xml"/>
        <statistic-output value="/home/vishwajit/Workspace/SIH2025/FDRL/sumo_files/2025-09-21-13-26-55/stats.xml"/>
    </output>

    <processing>
        <ignore-route-errors value="true"/>
        <tls.actuated.jam-threshold value="30"/>
    </processing>

    <routing>
        <device.rerouting.adaptation-steps value="18"/>
        <device.rerouting.adaptation-interval value="10"/>
    </routing>

    <report>
        <verbose value="true"/>
        <duration-log.statistics value="true"/>
        <no-step-log value="true"/>
    </report>

    <gui_only>
        <gui-settings-file value="/home/vishwajit/Workspace/SIH2025/FDRL/sumo_files/2025-09-21-13-26-55/osm.view.xml"/>
    </gui_only>

</sumoConfiguration>
-->

<meandata xmlns:xsi="http://www.w3.org/2001/XMLSchema-instance" xsi:noNamespaceSchemaLocation="http://sumo.dlr.de/xsd/meandata_file.xsd">
    <interval begin="0.00" end="3600.00" id="wizard_example">
        <edge id="-1091258062" sampledSeconds="5.87" traveltime="5.72" overlapTraveltime="6.28" density="0.02" laneDensity="0.02" occupancy="0.01" waitingTime="0.00" timeLoss="0.99" speed="12.38" speedRelative="0.89" departed="1" arrived="0" entered="0" left="1" laneChangedFrom="0" laneChangedTo="0"/>
        <edge id="-1091258063" sampledSeconds="27.09" traveltime="6.75" overlapTraveltime="7.02" density="0.10" laneDensity="0.10" occupancy="0.03" waitingTime="0.00" timeLoss="2.66" speed="11.65" speedRelative="0.84" departed="4" arrived="0" entered="0" left="4" laneChangedFrom="0" laneChangedTo="0"/>
        <edge id="-1104594356" sampledSeconds="0.00" departed="0" arrived="0" entered="0" left="0" laneChangedFrom="0" laneChangedTo="0"/>
        <edge id="-1107662879" sampledSeconds="2734.90" traveltime="23.54" overlapTraveltime="25.12" density="18.79" laneDensity="18.79" occupancy="8.65" waitingTime="453.00" timeLoss="1088.18" speed="1.81" speedRelative="0.65" departed="13" arrived="10" entered="98" left="100" laneChangedFrom="0" laneChangedTo="0"/>
        <edge id="-1120729741" sampledSeconds="0.00" departed="0" arrived="0" entered="0" left="0" laneChangedFrom="0" laneChangedTo="0"/>
        <edge id="-1121147900#0" sampledSeconds="0.00" departed="0" arrived="0" entered="0" left="0" laneChangedFrom="0" laneChangedTo="0"/>
        <edge id="-1121147900#1" sampledSeconds="0.00" departed="0" arrived="0" entered="0" left="0" laneChangedFrom="0" laneChangedTo="0"/>
        <edge id="-1121147901" sampledSeconds="0.00" departed="0" arrived="0" entered="0" left="0" laneChangedFrom="0" laneChangedTo="0"/>
        <edge id="-1121687688" sampledSeconds="801.86" traveltime="10.94" overlapTraveltime="11.60" density="1.70" laneDensity="1.70" occupancy="0.87" waitingTime="0.00" timeLoss="102.96" speed="11.76" speedRelative="0.85" departed="5" arrived="5" entered="65" left="64" laneChangedFrom="0" laneChangedTo="0"/>
        <edge id="-1122104213" sampledSeconds="61.26" traveltime="11.62" overlapTraveltime="14.16" density="0.29" laneDensity="0.29" occupancy="0.31" waitingTime="0.00" timeLoss="7.53" speed="4.97" speedRelative="0.89" departed="1" arrived="4" entered="4" left="1" laneChangedFrom="0" laneChangedTo="0"/>
        <edge id="-1124140020" sampledSeconds="0.00" departed="0" arrived="0" entered="0" left="0" laneChangedFrom="0" laneChangedTo="0"/>
        <edge id="-1126732421" sampledSeconds="0.00" departed="0" arrived="0" entered="0" left="0" laneChangedFrom="0" laneChangedTo="0"/>
        <edge id="-1126732422" sampledSeconds="0.00" departed="0" arrived="0" entered="0" left="0" laneChangedFrom="0" laneChangedTo="0"/>
        <edge id="-1126732432#0" sampledSeconds="0.00" departed="0" arrived="0" entered="0" left="0" laneChangedFrom="0" laneChangedTo="0"/>
        <edge id="-1126732432#1" sampledSeconds="0.00" departed="0" arrived="0" entered="0" left="0" laneChangedFrom="0" laneChangedTo="0"/>
        <edge id="-1126732432#2" sampledSeconds="0.00" departed="0" arrived="0" entered="0" left="0" laneChangedFrom="0" laneChangedTo="0"/>
        <edge id="-1126732432#3" sampledSeconds="0.00" departed="0" arrived="0" entered="0" left="0" laneChangedFrom="0" laneChangedTo="0"/>
        <edge id="-1126750040" sampledSeconds="0.00" departed="0" arrived="0" entered="0" left="0" laneChangedFrom="0" laneChangedTo="0"/>
        <edge id="-1126750041#0" sampledSeconds="87.20" traveltime="0.05" overlapTraveltime="2.04" density="212.77" laneDensity="212.77" occupancy="2.37" waitingTime="0.00" timeLoss="65.16" speed="3.09" speedRelative="1.11" departed="6" arrived="7" entered="54" left="53" laneChangedFrom="0" laneChangedTo="0"/>
        <edge id="-1126750041#1" sampledSeconds="1988.17" traveltime="35.74" overlapTraveltime="37.91" density="7.35" laneDensity="7.35" occupancy="3.26" waitingTime="2.00" timeLoss="475.37" speed="2.11" speedRelative="0.76" departed="28" arrived="0" entered="26" left="54" laneChangedFrom="0" laneChangedTo="0"/>
        <edge id="-1126750042" sampledSeconds="522.37" traveltime="7.27" overlapTraveltime="9.27" density="1.90" laneDensity="1.90" occupancy="0.82" waitingTime="0.00" timeLoss="106.52" speed="8.81" speedRelative="0.63" departed="4" arrived="9" entered="53" left="48" laneChangedFrom="0" laneChangedTo="0"/>
        <edge id="-1176129290" sampledSeconds="0.00" departed="0" arrived="0" entered="0" left="0" laneChangedFrom="0" laneChangedTo="0"/>
        <edge id="-1177177536#0" sampledSeconds="264.36" traveltime="2.07" overlapTraveltime="2.96" density="5.30" laneDensity="5.30" occupancy="2.00" waitingTime="0.00" timeLoss="98.36" speed="6.40" speedRelative="0.46" departed="7" arrived="11" entered="87" left="83" laneChangedFrom="0" laneChangedTo="0"/>
        <edge id="-1177177536#1" sampledSeconds="135.02" traveltime="2.34" overlapTraveltime="2.84" density="1.89" laneDensity="1.89" occupancy="0.74" waitingTime="0.00" timeLoss="47.08" speed="8.82" speedRelative="0.63" departed="35" arrived="0" entered="20" left="55" laneChangedFrom="0" laneChangedTo="0"/>
        <edge id="-1177178388" sampledSeconds="0.00" departed="0" arrived="0" entered="0" left="0" laneChangedFrom="0" laneChangedTo="0"/>
        <edge id="-1187806250" sampledSeconds="60.09" traveltime="1.92" overlapTraveltime="2.81" density="1.37" laneDensity="1.37" occupancy="0.46" waitingTime="0.00" timeLoss="25.22" speed="5.94" speedRelative="0.43" departed="25" arrived="0" entered="3" left="28" laneChangedFrom="0" laneChangedTo="0"/>
        <edge id="-1187815339" sampledSeconds="23.08" traveltime="7.37" overlapTraveltime="7.92" density="0.08" laneDensity="0.08" occupancy="0.02" waitingTime="0.00" timeLoss="5.17" speed="9.98" speedRelative="0.72" departed="3" arrived="0" entered="0" left="3" laneChangedFrom="0" laneChangedTo="0"/>
        <edge id="-1189813847" sampledSeconds="293.59" traveltime="5.37" overlapTraveltime="6.26" density="1.64" laneDensity="1.64" occupancy="0.64" waitingTime="10.00" timeLoss="81.92" speed="8.62" speedRelative="0.62" departed="51" arrived="0" entered="0" left="51" laneChangedFrom="0" laneChangedTo="0"/>
        <edge id="-1192259547#0" sampledSeconds="0.00" departed="0" arrived="0" entered="0" left="0" laneChangedFrom="0" laneChangedTo="0"/>
        <edge id="-1192259547#1" sampledSeconds="0.00" departed="0" arrived="0" entered="0" left="0" laneChangedFrom="0" laneChangedTo="0"/>
        <edge id="-1192259547#2" sampledSeconds="0.00" departed="0" arrived="0" entered="0" left="0" laneChangedFrom="0" laneChangedTo="0"/>
        <edge id="-1192260047" sampledSeconds="0.00" departed="0" arrived="0" entered="0" left="0" laneChangedFrom="0" laneChangedTo="0"/>
        <edge id="-1192260334" sampledSeconds="0.00" departed="0" arrived="0" entered="0" left="0" laneChangedFrom="0" laneChangedTo="0"/>
        <edge id="-1192260787" sampledSeconds="102.48" traveltime="2.34" overlapTraveltime="2.94" density="1.31" laneDensity="1.31" occupancy="0.53" waitingTime="0.00" timeLoss="34.10" speed="9.23" speedRelative="0.66" departed="30" arrived="0" entered="11" left="41" laneChangedFrom="0" laneChangedTo="0"/>
        <edge id="-1192261218" sampledSeconds="0.00" departed="0" arrived="0" entered="0" left="0" laneChangedFrom="0" laneChangedTo="0"/>
        <edge id="-1192349845" sampledSeconds="82.24" traveltime="3.32" overlapTraveltime="3.78" density="0.56" laneDensity="0.56" occupancy="0.21" waitingTime="0.00" timeLoss="8.92" speed="11.84" speedRelative="0.85" departed="24" arrived="0" entered="0" left="24" laneChangedFrom="0" laneChangedTo="0"/>
        <edge id="-1192350266" sampledSeconds="0.00" departed="0" arrived="0" entered="0" left="0" laneChangedFrom="0" laneChangedTo="0"/>
        <edge id="-1216472561" sampledSeconds="0.00" departed="0" arrived="0" entered="0" left="0" laneChangedFrom="0" laneChangedTo="0"/>
        <edge id="-1238879358#0" sampledSeconds="144.55" traveltime="0.84" overlapTraveltime="2.17" density="7.23" laneDensity="7.23" occupancy="1.93" waitingTime="0.00" timeLoss="69.56" speed="5.11" speedRelative="0.23" departed="0" arrived="25" entered="75" left="50" laneChangedFrom="0" laneChangedTo="0"/>
        <edge id="-1238879358#1" sampledSeconds="261.82" traveltime="2.87" overlapTraveltime="3.31" density="1.73" laneDensity="1.73" occupancy="0.81" waitingTime="0.00" timeLoss="92.40" speed="14.37" speedRelative="0.65" departed="10" arrived="6" entered="71" left="75" laneChangedFrom="0" laneChangedTo="0"/>
        <edge id="-1238879358#3" sampledSeconds="266.60" traveltime="1.78" overlapTraveltime="2.39" density="3.53" laneDensity="3.53" occupancy="1.62" waitingTime="0.00" timeLoss="104.49" speed="11.28" speedRelative="0.51" departed="12" arrived="7" entered="105" left="110" laneChangedFrom="0" laneChangedTo="0"/>
        <edge id="-1238879358#4" sampledSeconds="139.16" traveltime="0.89" overlapTraveltime="1.27" density="3.09" laneDensity="3.09" occupancy="1.17" waitingTime="0.00" timeLoss="48.50" speed="14.44" speedRelative="0.65" departed="6" arrived="9" entered="108" left="105" laneChangedFrom="0" laneChangedTo="0"/>
        <edge id="-1238879358#5" sampledSeconds="1539.84" traveltime="11.57" overlapTraveltime="12.23" density="2.43" laneDensity="2.43" occupancy="1.28" waitingTime="35.00" timeLoss="487.14" speed="14.86" speedRelative="0.67" departed="7" arrived="5" entered="120" left="121" laneChangedFrom="0" laneChangedTo="0"/>
        <edge id="-1238879358#6" sampledSeconds="699.17" traveltime="8.46" overlapTraveltime="10.01" density="2.34" laneDensity="2.34" occupancy="1.09" waitingTime="128.00" timeLoss="406.00" speed="8.84" speedRelative="0.40" departed="8" arrived="7" entered="63" left="62" laneChangedFrom="0" laneChangedTo="0"/>
        <edge id="-1243421938" sampledSeconds="0.00" departed="0" arrived="0" entered="0" left="0" laneChangedFrom="0" laneChangedTo="0"/>
        <edge id="-1243425888" sampledSeconds="169.53" traveltime="6.31" overlapTraveltime="7.27" density="0.74" laneDensity="0.74" occupancy="0.30" waitingTime="2.00" timeLoss="48.08" speed="9.35" speedRelative="0.67" departed="25" arrived="0" entered="0" left="25" laneChangedFrom="0" laneChangedTo="0"/>
        <edge id="-1243972960" sampledSeconds="0.00" departed="0" arrived="0" entered="0" left="0" laneChangedFrom="0" laneChangedTo="0"/>
        <edge id="-124611611#0" sampledSeconds="92.29" traveltime="4.98" overlapTraveltime="5.44" density="0.47" laneDensity="0.47" occupancy="0.15" waitingTime="0.00" timeLoss="25.40" speed="10.61" speedRelative="0.76" departed="0" arrived="0" entered="17" left="17" laneChangedFrom="0" laneChangedTo="0"/>
        <edge id="-124611611#1" sampledSeconds="22.36" traveltime="1.37" overlapTraveltime="1.60" density="0.36" laneDensity="0.36" occupancy="0.09" waitingTime="0.00" timeLoss="2.87" speed="12.60" speedRelative="0.91" departed="0" arrived="1" entered="14" left="13" laneChangedFrom="0" laneChangedTo="0"/>
        <edge id="-124611611#2" sampledSeconds="7.39" traveltime="0.03" overlapTraveltime="0.47" density="10.27" laneDensity="10.27" occupancy="0.19" waitingTime="0.00" timeLoss="1.21" speed="7.41" speedRelative="0.53" departed="0" arrived="0" entered="17" left="17" laneChangedFrom="0" laneChangedTo="0"/>
        <edge id="-124611611#3" sampledSeconds="184.41" traveltime="9.96" overlapTraveltime="10.25" density="0.42" laneDensity="0.42" occupancy="0.12" waitingTime="0.00" timeLoss="27.59" speed="12.05" speedRelative="0.87" departed="1" arrived="1" entered="17" left="17" laneChangedFrom="0" laneChangedTo="0"/>
        <edge id="-124611611#4" sampledSeconds="11.99" traveltime="6.00" overlapTraveltime="6.40" density="0.04" laneDensity="0.04" occupancy="0.02" waitingTime="0.00" timeLoss="0.40" speed="12.59" speedRelative="0.91" departed="2" arrived="0" entered="0" left="2" laneChangedFrom="0" laneChangedTo="0"/>
        <edge id="-124611617#1" sampledSeconds="29.29" traveltime="7.00" overlapTraveltime="7.37" density="0.11" laneDensity="0.11" occupancy="0.04" waitingTime="0.00" timeLoss="5.84" speed="10.68" speedRelative="0.77" departed="1" arrived="2" entered="3" left="2" laneChangedFrom="0" laneChangedTo="0"/>
        <edge id="-124611617#2" sampledSeconds="21.26" traveltime="10.59" overlapTraveltime="10.87" density="0.05" laneDensity="0.05" occupancy="0.02" waitingTime="0.00" timeLoss="4.60" speed="11.97" speedRelative="0.86" departed="1" arrived="1" entered="1" left="1" laneChangedFrom="0" laneChangedTo="0"/>
        <edge id="-124611620" sampledSeconds="85.81" traveltime="13.87" overlapTraveltime="14.41" density="0.15" laneDensity="0.15" occupancy="0.05" waitingTime="0.00" timeLoss="17.00" speed="11.53" speedRelative="0.83" departed="2" arrived="1" entered="4" left="5" laneChangedFrom="0" laneChangedTo="0"/>
        <edge id="-124858284#0" sampledSeconds="228.64" traveltime="7.38" overlapTraveltime="8.14" density="0.93" laneDensity="0.93" occupancy="0.42" waitingTime="1.00" timeLoss="69.90" speed="8.96" speedRelative="0.65" departed="8" arrived="6" entered="21" left="23" laneChangedFrom="0" laneChangedTo="0"/>
        <edge id="-124858284#1" sampledSeconds="173.69" traveltime="6.03" overlapTraveltime="6.63" density="0.82" laneDensity="0.82" occupancy="0.36" waitingTime="0.00" timeLoss="46.06" speed="9.61" speedRelative="0.69" departed="8" arrived="6" entered="19" left="21" laneChangedFrom="0" laneChangedTo="0"/>
        <edge id="-124858284#2" sampledSeconds="148.52" traveltime="5.70" overlapTraveltime="6.29" density="0.79" laneDensity="0.79" occupancy="0.25" waitingTime="0.00" timeLoss="44.91" speed="8.89" speedRelative="0.64" departed="5" arrived="2" entered="19" left="22" laneChangedFrom="0" laneChangedTo="0"/>
        <edge id="-124858284#3" sampledSeconds="144.11" traveltime="5.16" overlapTraveltime="5.65" density="0.78" laneDensity="0.78" occupancy="0.29" waitingTime="0.00" timeLoss="35.30" speed="9.75" speedRelative="0.70" departed="5" arrived="3" entered="21" left="23" laneChangedFrom="0" laneChangedTo="0"/>
        <edge id="-124858284#4" sampledSeconds="149.37" traveltime="4.98" overlapTraveltime="5.56" density="0.91" laneDensity="0.91" occupancy="0.41" waitingTime="0.00" timeLoss="43.43" speed="9.14" speedRelative="0.66" departed="6" arrived="5" entered="22" left="23" laneChangedFrom="0" laneChangedTo="0"/>
        <edge id="-124858284#5" sampledSeconds="103.37" traveltime="5.19" overlapTraveltime="5.99" density="0.67" laneDensity="0.67" occupancy="0.31" waitingTime="0.00" timeLoss="36.52" speed="7.99" speedRelative="0.57" departed="3" arrived="3" entered="15" left="15" laneChangedFrom="0" laneChangedTo="0"/>
        <edge id="-124858284#7" sampledSeconds="147.10" traveltime="3.42" overlapTraveltime="4.24" density="1.52" laneDensity="1.52" occupancy="0.63" waitingTime="4.00" timeLoss="60.15" speed="7.52" speedRelative="0.54" departed="6" arrived="4" entered="30" left="32" laneChangedFrom="0" laneChangedTo="0"/>
        <edge id="-124858284#9" sampledSeconds="438.78" traveltime="7.75" overlapTraveltime="8.47" density="1.76" laneDensity="1.76" occupancy="0.90" waitingTime="0.00" timeLoss="147.77" speed="8.88" speedRelative="0.64" departed="10" arrived="3" entered="43" left="50" laneChangedFrom="0" laneChangedTo="0"/>
        <edge id="-124861796#0" sampledSeconds="471.24" traveltime="10.77" overlapTraveltime="11.81" density="1.47" laneDensity="1.47" occupancy="0.66" waitingTime="47.00" timeLoss="186.78" speed="7.96" speedRelative="0.57" departed="11" arrived="5" entered="30" left="36" laneChangedFrom="0" laneChangedTo="0"/>
        <edge id="-124861796#2" sampledSeconds="242.25" traveltime="10.60" overlapTraveltime="11.34" density="0.72" laneDensity="0.72" occupancy="0.34" waitingTime="1.00" timeLoss="86.01" speed="8.65" speedRelative="0.62" departed="9" arrived="8" entered="13" left="14" laneChangedFrom="0" laneChangedTo="0"/>
        <edge id="-124861802" sampledSeconds="832.98" traveltime="17.01" overlapTraveltime="17.91" density="1.32" laneDensity="1.32" occupancy="0.68" waitingTime="31.00" timeLoss="231.78" speed="10.05" speedRelative="0.72" departed="12" arrived="4" entered="35" left="43" laneChangedFrom="0" laneChangedTo="0"/>
        <edge id="-124861803#0" sampledSeconds="262.96" traveltime="11.15" overlapTraveltime="11.60" density="0.53" laneDensity="0.53" occupancy="0.29" waitingTime="0.00" timeLoss="26.51" speed="12.46" speedRelative="0.90" departed="0" arrived="23" entered="23" left="0" laneChangedFrom="0" laneChangedTo="0"/>
        <edge id="-124861803#2" sampledSeconds="878.23" traveltime="16.39" overlapTraveltime="17.30" density="1.56" laneDensity="1.56" occupancy="0.80" waitingTime="121.00" timeLoss="268.39" speed="9.34" speedRelative="0.67" departed="6" arrived="4" entered="45" left="47" laneChangedFrom="0" laneChangedTo="0"/>
        <edge id="-124861803#3" sampledSeconds="270.23" traveltime="2.19" overlapTraveltime="2.88" density="4.74" laneDensity="4.74" occupancy="1.91" waitingTime="0.00" timeLoss="122.12" speed="7.44" speedRelative="0.54" departed="11" arrived="6" entered="89" left="94" laneChangedFrom="0" laneChangedTo="0"/>
        <edge id="-124861809#0" sampledSeconds="436.53" traveltime="11.34" overlapTraveltime="12.01" density="1.36" laneDensity="1.36" occupancy="0.53" waitingTime="80.00" timeLoss="175.72" speed="7.76" speedRelative="0.56" departed="9" arrived="5" entered="28" left="31" laneChangedFrom="0" laneChangedTo="0"/>
        <edge id="-124861809#1" sampledSeconds="176.42" traveltime="8.46" overlapTraveltime="8.91" density="0.57" laneDensity="0.57" occupancy="0.20" waitingTime="0.00" timeLoss="44.80" speed="10.01" speedRelative="0.72" departed="3" arrived="4" entered="17" left="16" laneChangedFrom="0" laneChangedTo="0"/>
        <edge id="-124861812#0" sampledSeconds="154.53" traveltime="2.46" overlapTraveltime="3.26" density="1.59" laneDensity="1.59" occupancy="0.66" waitingTime="0.00" timeLoss="30.86" speed="9.84" speedRelative="0.71" departed="0" arrived="33" entered="49" left="16" laneChangedFrom="0" laneChangedTo="0"/>
        <edge id="-124861812#1" sampledSeconds="330.41" traveltime="5.72" overlapTraveltime="6.15" density="1.55" laneDensity="1.55" occupancy="0.75" waitingTime="0.00" timeLoss="78.63" speed="10.46" speedRelative="0.75" departed="8" arrived="6" entered="47" left="49" laneChangedFrom="0" laneChangedTo="0"/>
        <edge id="-124861812#2" sampledSeconds="405.39" traveltime="8.73" overlapTraveltime="9.57" density="1.29" laneDensity="1.29" occupancy="0.66" waitingTime="2.00" timeLoss="113.53" speed="9.72" speedRelative="0.70" departed="4" arrived="6" entered="39" left="37" laneChangedFrom="0" laneChangedTo="0"/>
        <edge id="-124861817#0" sampledSeconds="3457.29" traveltime="48.93" overlapTraveltime="50.36" density="5.24" laneDensity="5.24" occupancy="2.64" waitingTime="2077.00" timeLoss="2512.95" speed="3.74" speedRelative="0.27" departed="6" arrived="6" entered="63" left="63" laneChangedFrom="0" laneChangedTo="0"/>
        <edge id="-124861817#1" sampledSeconds="906.12" traveltime="9.15" overlapTraveltime="10.39" density="5.56" laneDensity="5.56" occupancy="2.58" waitingTime="295.00" timeLoss="568.42" speed="4.84" speedRelative="0.35" departed="0" arrived="8" entered="88" left="80" laneChangedFrom="0" laneChangedTo="0"/>
        <edge id="-124861817#2" sampledSeconds="695.85" traveltime="9.58" overlapTraveltime="9.99" density="1.66" laneDensity="1.66" occupancy="0.75" waitingTime="0.00" timeLoss="85.27" speed="12.11" speedRelative="0.87" departed="9" arrived="6" entered="61" left="64" laneChangedFrom="0" laneChangedTo="0"/>
        <edge id="-124861817#3" sampledSeconds="315.77" traveltime="5.35" overlapTraveltime="5.85" density="1.51" laneDensity="1.51" occupancy="0.71" waitingTime="0.00" timeLoss="67.73" speed="10.87" speedRelative="0.78" departed="10" arrived="6" entered="45" left="49" laneChangedFrom="0" laneChangedTo="0"/>
        <edge id="-124861817#4" sampledSeconds="276.26" traveltime="6.38" overlapTraveltime="6.84" density="1.12" laneDensity="1.12" occupancy="0.52" waitingTime="0.00" timeLoss="59.64" speed="10.76" speedRelative="0.77" departed="4" arrived="9" entered="37" left="32" laneChangedFrom="0" laneChangedTo="0"/>
        <edge id="-124861817#5" sampledSeconds="272.96" traveltime="7.48" overlapTraveltime="8.62" density="1.09" laneDensity="1.09" occupancy="0.50" waitingTime="25.00" timeLoss="93.16" speed="8.64" speedRelative="0.62" departed="34" arrived="0" entered="0" left="34" laneChangedFrom="0" laneChangedTo="0"/>
        <edge id="-124861823#0" sampledSeconds="718.13" traveltime="6.16" overlapTraveltime="7.13" density="3.03" laneDensity="3.03" occupancy="1.39" waitingTime="50.00" timeLoss="334.71" speed="9.95" speedRelative="0.45" departed="9" arrived="12" entered="93" left="90" laneChangedFrom="0" laneChangedTo="0"/>
        <edge id="-124861823#1" sampledSeconds="865.40" traveltime="4.55" overlapTraveltime="5.72" density="4.00" laneDensity="4.00" occupancy="1.79" waitingTime="122.00" timeLoss="382.41" speed="11.40" speedRelative="0.51" departed="6" arrived="8" entered="147" left="145" laneChangedFrom="0" laneChangedTo="0"/>
        <edge id="-124861823#2" sampledSeconds="875.81" traveltime="3.66" overlapTraveltime="4.22" density="4.52" laneDensity="4.52" occupancy="2.00" waitingTime="15.00" timeLoss="273.66" speed="13.94" speedRelative="0.63" departed="5" arrived="7" entered="204" left="202" laneChangedFrom="0" laneChangedTo="0"/>
        <edge id="-124861823#3" sampledSeconds="750.31" traveltime="3.00" overlapTraveltime="3.38" density="4.37" laneDensity="4.37" occupancy="1.89" waitingTime="11.00" timeLoss="201.10" speed="15.56" speedRelative="0.70" departed="2" arrived="2" entered="221" left="221" laneChangedFrom="0" laneChangedTo="0"/>
        <edge id="-124861823#4" sampledSeconds="1063.20" traveltime="3.73" overlapTraveltime="4.41" density="6.32" laneDensity="6.32" occupancy="2.53" waitingTime="149.00" timeLoss="473.71" speed="11.65" speedRelative="0.52" departed="6" arrived="4" entered="235" left="237" laneChangedFrom="0" laneChangedTo="0"/>
        <edge id="-124861823#5" sampledSeconds="952.16" traveltime="3.30" overlapTraveltime="3.96" density="5.93" laneDensity="5.93" occupancy="2.65" waitingTime="44.00" timeLoss="354.07" speed="12.61" speedRelative="0.57" departed="5" arrived="6" entered="238" left="236" laneChangedFrom="0" laneChangedTo="0"/>
        <edge id="-124861823#6" sampledSeconds="677.32" traveltime="2.84" overlapTraveltime="3.23" density="4.16" laneDensity="4.16" occupancy="2.01" waitingTime="5.00" timeLoss="183.88" speed="15.77" speedRelative="0.71" departed="5" arrived="5" entered="207" left="207" laneChangedFrom="0" laneChangedTo="0"/>
        <edge id="-124861823#7" sampledSeconds="1291.00" traveltime="5.84" overlapTraveltime="6.30" density="5.54" laneDensity="5.54" occupancy="2.85" waitingTime="0.00" timeLoss="620.38" speed="11.20" speedRelative="0.50" departed="6" arrived="7" entered="202" left="200" laneChangedFrom="0" laneChangedTo="0"/>
        <edge id="-124861824#0" sampledSeconds="11271.52" traveltime="124.75" overlapTraveltime="127.32" density="17.15" laneDensity="17.15" occupancy="10.90" waitingTime="8859.00" timeLoss="10027.51" speed="1.48" speedRelative="0.11" departed="8" arrived="3" entered="86" left="76" laneChangedFrom="0" laneChangedTo="0" teleported="1"/>
        <edge id="-124861824#1" sampledSeconds="582.22" traveltime="7.10" overlapTraveltime="7.68" density="1.95" laneDensity="1.95" occupancy="0.86" waitingTime="3.00" timeLoss="86.39" speed="11.43" speedRelative="0.82" departed="6" arrived="3" entered="70" left="73" laneChangedFrom="0" laneChangedTo="0"/>
        <edge id="-124861824#2" sampledSeconds="464.62" traveltime="6.62" overlapTraveltime="7.08" density="1.66" laneDensity="1.66" occupancy="0.78" waitingTime="0.00" timeLoss="69.09" speed="11.69" speedRelative="0.84" departed="4" arrived="5" entered="62" left="61" laneChangedFrom="0" laneChangedTo="0"/>
        <edge id="-124861824#3" sampledSeconds="531.38" traveltime="12.26" overlapTraveltime="12.70" density="1.03" laneDensity="1.03" occupancy="0.52" waitingTime="0.00" timeLoss="82.41" speed="11.69" speedRelative="0.84" departed="3" arrived="3" entered="39" left="39" laneChangedFrom="0" laneChangedTo="0"/>
        <edge id="-124861825#0" sampledSeconds="706.12" traveltime="8.17" overlapTraveltime="8.76" density="2.19" laneDensity="2.19" occupancy="1.05" waitingTime="0.00" timeLoss="133.78" speed="10.84" speedRelative="0.78" departed="6" arrived="4" entered="75" left="77" laneChangedFrom="0" laneChangedTo="0"/>
        <edge id="-124861825#1" sampledSeconds="1265.96" traveltime="9.14" overlapTraveltime="10.41" density="8.59" laneDensity="8.59" occupancy="3.97" waitingTime="454.00" timeLoss="825.08" speed="4.43" speedRelative="0.32" departed="8" arrived="1" entered="115" left="121" laneChangedFrom="0" laneChangedTo="0"/>
        <edge id="-124861825#10" sampledSeconds="3291.66" traveltime="16.66" overlapTraveltime="17.79" density="23.94" laneDensity="23.94" occupancy="11.63" waitingTime="1837.00" timeLoss="2681.33" speed="2.44" speedRelative="0.18" departed="11" arrived="7" entered="179" left="177" laneChangedFrom="0" laneChangedTo="0"/>
        <edge id="-124861825#2" sampledSeconds="447.91" traveltime="2.89" overlapTraveltime="3.47" density="3.75" laneDensity="3.75" occupancy="1.63" waitingTime="3.00" timeLoss="75.23" speed="11.09" speedRelative="0.80" departed="6" arrived="3" entered="124" left="127" laneChangedFrom="0" laneChangedTo="0"/>
        <edge id="-124861825#3" sampledSeconds="585.57" traveltime="2.80" overlapTraveltime="3.52" density="5.21" laneDensity="5.21" occupancy="2.22" waitingTime="21.00" timeLoss="126.10" speed="10.37" speedRelative="0.75" departed="4" arrived="8" entered="165" left="159" laneChangedFrom="0" laneChangedTo="0"/>
        <edge id="-124861825#5" sampledSeconds="647.64" traveltime="3.03" overlapTraveltime="3.51" density="5.31" laneDensity="5.31" occupancy="2.24" waitingTime="0.00" timeLoss="114.56" speed="11.08" speedRelative="0.80" departed="9" arrived="4" entered="177" left="181" laneChangedFrom="0" laneChangedTo="0"/>
        <edge id="-124861825#6" sampledSeconds="1434.31" traveltime="8.22" overlapTraveltime="8.73" density="4.18" laneDensity="4.18" occupancy="2.01" waitingTime="11.00" timeLoss="235.34" speed="11.53" speedRelative="0.83" departed="6" arrived="3" entered="159" left="161" laneChangedFrom="0" laneChangedTo="0"/>
        <edge id="-124861825#7" sampledSeconds="1912.17" traveltime="10.18" overlapTraveltime="11.22" density="5.98" laneDensity="5.98" occupancy="3.16" waitingTime="191.00" timeLoss="729.84" speed="8.43" speedRelative="0.61" departed="1" arrived="9" entered="171" left="162" laneChangedFrom="0" laneChangedTo="0"/>
        <edge id="-124861825#8" sampledSeconds="2987.91" traveltime="14.15" overlapTraveltime="15.34" density="8.89" laneDensity="8.89" occupancy="5.19" waitingTime="737.00" timeLoss="1570.13" speed="6.50" speedRelative="0.47" departed="9" arrived="3" entered="191" left="189" laneChangedFrom="0" laneChangedTo="0"/>
        <edge id="-124861825#9" sampledSeconds="8554.50" traveltime="28.38" overlapTraveltime="29.91" density="27.33" laneDensity="27.33" occupancy="16.24" waitingTime="3881.00" timeLoss="6555.13" speed="3.12" speedRelative="0.22" departed="5" arrived="6" entered="288" left="280" laneChangedFrom="0" laneChangedTo="0"/>