<?xml version="1.0" encoding="UTF-8"?>

<!-- generated on 2025-11-01 21:41:40 by Eclipse SUMO sumo Version 1.24.0
<sumoConfiguration xmlns:xsi="http://www.w3.org/2001/XMLSchema-instance" xsi:noNamespaceSchemaLocation="http://sumo.dlr.de/xsd/sumoConfiguration.xsd">

    <input>
        <net-file value="sumo_files/Berlin/osm.net.xml.gz"/>
        <route-files value="sumo_files/Berlin/osm_pt.rou.xml,sumo_files/Berlin/osm.bus.trips.xml,sumo_files/Berlin/osm.motorcycle.trips.xml,sumo_files/Berlin/osm.passenger.trips.xml,sumo_files/Berlin/osm.truck.trips.xml"/>
        <additional-files value="sumo_files/Berlin/osm.poly.xml.gz,sumo_files/Berlin/osm_stops.add.xml,sumo_files/Berlin/output.add.xml"/>
    </input>

    <output>
        <tripinfo-output value="sumo_files/Berlin/tripinfos.xml"/>
        <stop-output value="sumo_files/Berlin/stopinfos.xml"/>
        <statistic-output value="sumo_files/Berlin/stats.xml"/>
    </output>

    <time>
        <step-length value="1.0"/>
    </time>

    <processing>
        <ignore-route-errors value="true"/>
        <time-to-teleport value="-1"/>
        <tls.actuated.jam-threshold value="30"/>
    </processing>

    <routing>
        <device.rerouting.adaptation-steps value="18"/>
        <device.rerouting.adaptation-interval value="10"/>
    </routing>

    <report>
        <verbose value="true"/>
        <no-warnings value="true"/>
        <duration-log.statistics value="true"/>
        <no-step-log value="true"/>
    </report>

    <traci_server>
        <remote-port value="50421"/>
    </traci_server>

    <gui_only>
        <gui-settings-file value="sumo_files/Berlin/osm.view.xml"/>
    </gui_only>

</sumoConfiguration>
-->

<meandata xmlns:xsi="http://www.w3.org/2001/XMLSchema-instance" xsi:noNamespaceSchemaLocation="http://sumo.dlr.de/xsd/meandata_file.xsd">
    <interval begin="0.00" end="3600.00" id="wizard_example">
        <edge id="-1015063876" sampledSeconds="0.00" departed="0" arrived="0" entered="0" left="0" laneChangedFrom="0" laneChangedTo="0"/>
        <edge id="-1015063877" sampledSeconds="0.00" departed="0" arrived="0" entered="0" left="0" laneChangedFrom="0" laneChangedTo="0"/>
        <edge id="-1015063879" sampledSeconds="0.00" departed="0" arrived="0" entered="0" left="0" laneChangedFrom="0" laneChangedTo="0"/>
        <edge id="-1015063883" sampledSeconds="0.00" departed="0" arrived="0" entered="0" left="0" laneChangedFrom="0" laneChangedTo="0"/>
        <edge id="-1015063886" sampledSeconds="0.00" departed="0" arrived="0" entered="0" left="0" laneChangedFrom="0" laneChangedTo="0"/>
        <edge id="-1020468799" sampledSeconds="42.41" traveltime="0.03" overlapTraveltime="1.37" density="58.90" laneDensity="58.90" occupancy="1.14" waitingTime="0.00" timeLoss="13.81" speed="5.62" speedRelative="0.67" departed="2" arrived="1" entered="39" left="40" laneChangedFrom="0" laneChangedTo="0"/>
        <edge id="-1020468803" sampledSeconds="12.93" traveltime="0.43" overlapTraveltime="1.31" density="1.12" laneDensity="1.12" occupancy="0.23" waitingTime="0.00" timeLoss="2.04" speed="7.12" speedRelative="0.86" departed="1" arrived="1" entered="10" left="10" laneChangedFrom="0" laneChangedTo="0"/>
        <edge id="-1024034686#0" sampledSeconds="32.75" traveltime="0.02" overlapTraveltime="0.80" density="60.64" laneDensity="60.64" occupancy="0.88" waitingTime="0.00" timeLoss="3.67" speed="7.20" speedRelative="0.86" departed="2" arrived="2" entered="48" left="48" laneChangedFrom="0" laneChangedTo="0"/>
        <edge id="-1024034686#1" sampledSeconds="57.00" traveltime="0.03" overlapTraveltime="1.17" density="79.16" laneDensity="79.16" occupancy="1.53" waitingTime="0.00" timeLoss="11.87" speed="5.80" speedRelative="0.70" departed="3" arrived="1" entered="59" left="61" laneChangedFrom="0" laneChangedTo="0"/>
        <edge id="-1024034687#0" sampledSeconds="57.51" traveltime="0.05" overlapTraveltime="1.65" density="88.75" laneDensity="88.75" occupancy="1.54" waitingTime="0.00" timeLoss="18.15" speed="3.55" speedRelative="0.43" departed="0" arrived="10" entered="41" left="31" laneChangedFrom="0" laneChangedTo="0"/>
        <edge id="-1024034687#1" sampledSeconds="58.68" traveltime="0.52" overlapTraveltime="1.44" density="5.21" laneDensity="5.21" occupancy="1.04" waitingTime="3.00" timeLoss="14.46" speed="6.16" speedRelative="0.74" departed="1" arrived="3" entered="43" left="41" laneChangedFrom="0" laneChangedTo="0"/>
        <edge id="-1024034687#11" sampledSeconds="39.31" traveltime="0.02" overlapTraveltime="0.91" density="64.23" laneDensity="64.23" occupancy="1.06" waitingTime="0.00" timeLoss="8.54" speed="6.38" speedRelative="0.77" departed="3" arrived="2" entered="48" left="49" laneChangedFrom="0" laneChangedTo="0"/>
        <edge id="-1024034687#2" sampledSeconds="39.61" traveltime="0.06" overlapTraveltime="1.01" density="26.83" laneDensity="26.83" occupancy="1.03" waitingTime="0.00" timeLoss="8.99" speed="6.36" speedRelative="0.76" departed="3" arrived="4" entered="44" left="43" laneChangedFrom="0" laneChangedTo="0"/>
        <edge id="-1024034687#3" sampledSeconds="36.06" traveltime="0.05" overlapTraveltime="0.86" density="29.46" laneDensity="29.46" occupancy="0.94" waitingTime="0.00" timeLoss="5.53" speed="6.96" speedRelative="0.84" departed="2" arrived="3" entered="45" left="44" laneChangedFrom="0" laneChangedTo="0"/>
        <edge id="-1024034687#5" sampledSeconds="111.96" traveltime="1.57" overlapTraveltime="2.27" density="2.69" laneDensity="2.69" occupancy="0.93" waitingTime="0.00" timeLoss="11.36" speed="7.35" speedRelative="0.88" departed="0" arrived="5" entered="50" left="45" laneChangedFrom="0" laneChangedTo="0"/>
        <edge id="-1024034687#6" sampledSeconds="158.01" traveltime="2.49" overlapTraveltime="3.20" density="2.55" laneDensity="2.55" occupancy="0.97" waitingTime="1.00" timeLoss="23.56" speed="6.97" speedRelative="0.84" departed="2" arrived="0" entered="48" left="50" laneChangedFrom="0" laneChangedTo="0"/>
        <edge id="-1024034687#7" sampledSeconds="45.49" traveltime="0.21" overlapTraveltime="1.05" density="8.10" laneDensity="8.10" occupancy="0.98" waitingTime="0.00" timeLoss="7.61" speed="6.83" speedRelative="0.82" departed="3" arrived="0" entered="45" left="48" laneChangedFrom="0" laneChangedTo="0"/>
        <edge id="-1024034687#8" sampledSeconds="279.11" traveltime="5.53" overlapTraveltime="6.21" density="1.90" laneDensity="1.90" occupancy="0.84" waitingTime="0.00" timeLoss="28.02" speed="7.38" speedRelative="0.89" departed="0" arrived="0" entered="45" left="45" laneChangedFrom="0" laneChangedTo="0"/>
        <edge id="-1024034687#9" sampledSeconds="33.74" traveltime="0.03" overlapTraveltime="0.80" density="46.86" laneDensity="46.86" occupancy="0.90" waitingTime="0.00" timeLoss="3.65" speed="7.27" speedRelative="0.87" departed="0" arrived="4" entered="49" left="45" laneChangedFrom="0" laneChangedTo="0"/>
        <edge id="-102984483#0" sampledSeconds="358.55" traveltime="1.17" overlapTraveltime="2.02" density="10.60" laneDensity="10.60" occupancy="3.50" waitingTime="41.00" timeLoss="144.48" speed="7.35" speedRelative="0.53" departed="2" arrived="2" entered="179" left="179" laneChangedFrom="0" laneChangedTo="0"/>
        <edge id="-102984483#1" sampledSeconds="16320.36" traveltime="87.04" overlapTraveltime="85.64" density="73.56" laneDensity="73.56" occupancy="26.56" waitingTime="15178.00" timeLoss="15418.96" speed="0.76" speedRelative="0.05" departed="1" arrived="2" entered="190" left="179" laneChangedFrom="0" laneChangedTo="0"/>
        <edge id="-1052675176#0" sampledSeconds="798.03" traveltime="38.35" overlapTraveltime="41.86" density="14.44" laneDensity="14.44" occupancy="7.02" waitingTime="737.00" timeLoss="750.89" speed="0.48" speedRelative="0.06" departed="3" arrived="1" entered="19" left="19" laneChangedFrom="0" laneChangedTo="0"/>
        <edge id="-1052675176#1" sampledSeconds="115.52" traveltime="5.33" overlapTraveltime="5.45" density="3.47" laneDensity="3.47" occupancy="0.80" waitingTime="78.00" timeLoss="84.44" speed="2.18" speedRelative="0.26" departed="0" arrived="0" entered="20" left="19" laneChangedFrom="0" laneChangedTo="0"/>
        <edge id="-1052675176#2" sampledSeconds="12.92" traveltime="0.03" overlapTraveltime="0.74" density="17.94" laneDensity="17.94" occupancy="0.34" waitingTime="0.00" timeLoss="3.52" speed="5.88" speedRelative="0.71" departed="5" arrived="1" entered="16" left="20" laneChangedFrom="0" laneChangedTo="0"/>
        <edge id="-1052675176#3" sampledSeconds="44.94" traveltime="2.39" overlapTraveltime="2.90" density="0.79" laneDensity="0.79" occupancy="0.23" waitingTime="0.00" timeLoss="7.93" speed="6.69" speedRelative="0.80" departed="3" arrived="0" entered="13" left="16" laneChangedFrom="0" laneChangedTo="0"/>
        <edge id="-1052675176#5" sampledSeconds="45.18" traveltime="2.79" overlapTraveltime="3.34" density="0.73" laneDensity="0.73" occupancy="0.23" waitingTime="0.00" timeLoss="10.07" speed="6.37" speedRelative="0.77" departed="2" arrived="1" entered="12" left="13" laneChangedFrom="0" laneChangedTo="0"/>
        <edge id="-1052675177#0" sampledSeconds="5352.39" traveltime="54.31" overlapTraveltime="61.53" density="67.98" laneDensity="67.98" occupancy="55.40" waitingTime="4912.00" timeLoss="5037.43" speed="0.49" speedRelative="0.06" departed="1" arrived="0" entered="97" left="96" laneChangedFrom="0" laneChangedTo="0"/>
        <edge id="-1052675177#2" sampledSeconds="2658.29" traveltime="40.13" overlapTraveltime="47.43" density="91.96" laneDensity="91.96" occupancy="62.85" waitingTime="2480.00" timeLoss="2557.29" speed="0.32" speedRelative="0.04" departed="1" arrived="1" entered="64" left="63" laneChangedFrom="0" laneChangedTo="0"/>
        <edge id="-1052675227#0" sampledSeconds="618.40" traveltime="0.03" overlapTraveltime="12.68" density="212.77" laneDensity="212.77" occupancy="17.15" waitingTime="583.00" timeLoss="587.29" speed="0.42" speedRelative="0.05" departed="1" arrived="1" entered="42" left="42" laneChangedFrom="0" laneChangedTo="0"/>
        <edge id="-1052675227#2" sampledSeconds="35.92" traveltime="0.03" overlapTraveltime="1.01" density="49.89" laneDensity="49.89" occupancy="0.96" waitingTime="0.00" timeLoss="4.08" speed="7.41" speedRelative="0.89" departed="1" arrived="4" entered="45" left="42" laneChangedFrom="0" laneChangedTo="0"/>
        <edge id="-1052675227#3" sampledSeconds="566.36" traveltime="11.59" overlapTraveltime="9.64" density="20.75" laneDensity="20.75" occupancy="4.88" waitingTime="481.00" timeLoss="493.18" speed="1.08" speedRelative="0.13" departed="0" arrived="0" entered="46" left="45" laneChangedFrom="0" laneChangedTo="0"/>
        <edge id="-1052675227#4" sampledSeconds="41.14" traveltime="0.03" overlapTraveltime="1.18" density="57.14" laneDensity="57.14" occupancy="1.11" waitingTime="0.00" timeLoss="8.40" speed="6.67" speedRelative="0.80" departed="2" arrived="0" entered="44" left="46" laneChangedFrom="0" laneChangedTo="0"/>
        <edge id="-1052675227#5" sampledSeconds="72.85" traveltime="0.78" overlapTraveltime="1.77" density="3.49" laneDensity="3.49" occupancy="1.04" waitingTime="0.00" timeLoss="12.53" speed="6.91" speedRelative="0.83" departed="2" arrived="1" entered="43" left="44" laneChangedFrom="0" laneChangedTo="0"/>
        <edge id="-1052675227#6" sampledSeconds="1082.42" traveltime="23.95" overlapTraveltime="26.63" density="9.43" laneDensity="9.43" occupancy="7.67" waitingTime="847.00" timeLoss="885.70" speed="1.51" speedRelative="0.18" departed="5" arrived="0" entered="41" left="43" laneChangedFrom="0" laneChangedTo="0"/>
        <edge id="-1052675228" sampledSeconds="3226.78" traveltime="49.32" overlapTraveltime="50.60" density="10.55" laneDensity="10.55" occupancy="5.71" waitingTime="2348.00" timeLoss="2525.67" speed="1.79" speedRelative="0.21" departed="3" arrived="3" entered="62" left="59" laneChangedFrom="0" laneChangedTo="0"/>
        <edge id="-1052734946" sampledSeconds="7.80" traveltime="3.41" overlapTraveltime="4.60" density="0.09" laneDensity="0.09" occupancy="0.06" waitingTime="0.00" timeLoss="0.92" speed="6.91" speedRelative="0.83" departed="0" arrived="2" entered="2" left="0" laneChangedFrom="0" laneChangedTo="0"/>
        <edge id="-1052756577" sampledSeconds="39.35" traveltime="12.50" overlapTraveltime="13.19" density="0.12" laneDensity="0.12" occupancy="0.06" waitingTime="0.00" timeLoss="3.61" speed="7.06" speedRelative="0.85" departed="0" arrived="3" entered="3" left="0" laneChangedFrom="0" laneChangedTo="0"/>
        <edge id="-1052756578#0" sampledSeconds="114.83" traveltime="2.40" overlapTraveltime="3.16" density="2.24" laneDensity="2.24" occupancy="0.78" waitingTime="1.00" timeLoss="28.76" speed="5.96" speedRelative="0.72" departed="2" arrived="1" entered="35" left="36" laneChangedFrom="0" laneChangedTo="0"/>
        <edge id="-1052756578#1" sampledSeconds="192.18" traveltime="4.62" overlapTraveltime="5.24" density="1.66" laneDensity="1.66" occupancy="0.64" waitingTime="0.00" timeLoss="26.24" speed="6.99" speedRelative="0.84" departed="2" arrived="2" entered="35" left="35" laneChangedFrom="0" laneChangedTo="0"/>
        <edge id="-1052756578#2" sampledSeconds="244.04" traveltime="6.00" overlapTraveltime="6.60" density="1.60" laneDensity="1.60" occupancy="0.62" waitingTime="0.00" timeLoss="31.33" speed="7.09" speedRelative="0.85" departed="0" arrived="2" entered="37" left="35" laneChangedFrom="0" laneChangedTo="0"/>
        <edge id="-1052757284#0" sampledSeconds="7654.84" traveltime="296.54" overlapTraveltime="306.98" density="33.27" laneDensity="33.27" occupancy="19.37" waitingTime="7378.00" timeLoss="7438.87" speed="0.23" speedRelative="0.03" departed="1" arrived="0" entered="28" left="22" laneChangedFrom="0" laneChangedTo="0"/>
        <edge id="-1052757284#1" sampledSeconds="3778.49" traveltime="111.50" overlapTraveltime="118.13" density="31.99" laneDensity="31.99" occupancy="19.49" waitingTime="3586.00" timeLoss="3625.76" speed="0.33" speedRelative="0.04" departed="1" arrived="4" entered="35" left="28" laneChangedFrom="0" laneChangedTo="0"/>
        <edge id="-1052758514#0" sampledSeconds="184.25" traveltime="11.60" overlapTraveltime="12.35" density="0.64" laneDensity="0.64" occupancy="0.26" waitingTime="0.00" timeLoss="27.83" speed="6.85" speedRelative="0.82" departed="1" arrived="2" entered="14" left="13" laneChangedFrom="0" laneChangedTo="0"/>
        <edge id="-1052758514#1" sampledSeconds="290.34" traveltime="4.22" overlapTraveltime="5.05" density="2.94" laneDensity="2.94" occupancy="1.27" waitingTime="0.00" timeLoss="60.92" speed="6.50" speedRelative="0.78" departed="1" arrived="1" entered="57" left="57" laneChangedFrom="0" laneChangedTo="0"/>
        <edge id="-1052758758#0" sampledSeconds="1608.05" traveltime="9.30" overlapTraveltime="10.36" density="7.61" laneDensity="7.61" occupancy="3.88" waitingTime="98.00" timeLoss="403.04" speed="6.21" speedRelative="0.75" departed="1" arrived="2" entered="155" left="154" laneChangedFrom="0" laneChangedTo="0"/>
        <edge id="-1052758758#1" sampledSeconds="1686.53" traveltime="10.05" overlapTraveltime="10.75" density="6.30" laneDensity="6.30" occupancy="3.09" waitingTime="0.00" timeLoss="177.66" speed="7.41" speedRelative="0.89" departed="2" arrived="2" entered="155" left="155" laneChangedFrom="0" laneChangedTo="0"/>
        <edge id="-1052758759" sampledSeconds="2472.73" traveltime="13.83" overlapTraveltime="14.56" density="6.85" laneDensity="6.85" occupancy="3.43" waitingTime="0.00" timeLoss="285.97" speed="7.26" speedRelative="0.87" departed="4" arrived="3" entered="166" left="167" laneChangedFrom="0" laneChangedTo="0"/>
        <edge id="-1053278664" sampledSeconds="0.00" departed="0" arrived="0" entered="0" left="0" laneChangedFrom="0" laneChangedTo="0"/>
        <edge id="-105593532#0" sampledSeconds="0.00" departed="0" arrived="0" entered="0" left="0" laneChangedFrom="0" laneChangedTo="0"/>
        <edge id="-105593532#1" sampledSeconds="0.00" departed="0" arrived="0" entered="0" left="0" laneChangedFrom="0" laneChangedTo="0"/>
        <edge id="-1056637173" sampledSeconds="0.00" departed="0" arrived="0" entered="0" left="0" laneChangedFrom="0" laneChangedTo="0"/>
        <edge id="-1070046769#0" sampledSeconds="0.00" departed="0" arrived="0" entered="0" left="0" laneChangedFrom="0" laneChangedTo="0"/>
        <edge id="-1070046769#1" sampledSeconds="0.00" departed="0" arrived="0" entered="0" left="0" laneChangedFrom="0" laneChangedTo="0"/>
        <edge id="-1071210942" sampledSeconds="0.00" departed="0" arrived="0" entered="0" left="0" laneChangedFrom="0" laneChangedTo="0"/>
        <edge id="-1077117221#1" sampledSeconds="0.00" departed="0" arrived="0" entered="0" left="0" laneChangedFrom="0" laneChangedTo="0"/>
        <edge id="-1085484772" sampledSeconds="0.00" departed="0" arrived="0" entered="0" left="0" laneChangedFrom="0" laneChangedTo="0"/>
        <edge id="-1085484775" sampledSeconds="0.00" departed="0" arrived="0" entered="0" left="0" laneChangedFrom="0" laneChangedTo="0"/>
        <edge id="-1085484776" sampledSeconds="0.00" departed="0" arrived="0" entered="0" left="0" laneChangedFrom="0" laneChangedTo="0"/>
        <edge id="-1094013594" sampledSeconds="0.00" departed="0" arrived="0" entered="0" left="0" laneChangedFrom="0" laneChangedTo="0"/>
        <edge id="-1094013595" sampledSeconds="0.00" departed="0" arrived="0" entered="0" left="0" laneChangedFrom="0" laneChangedTo="0"/>
        <edge id="-1095165529" sampledSeconds="11.06" overlapTraveltime="1.47" density="15.36" laneDensity="15.36" occupancy="0.30" waitingTime="0.00" timeLoss="5.34" speed="4.38" speedRelative="0.53" departed="8" arrived="0" entered="0" left="8" laneChangedFrom="0" laneChangedTo="0"/>
        <edge id="-1095407474#1" sampledSeconds="276.04" traveltime="5.66" overlapTraveltime="6.30" density="1.93" laneDensity="1.93" occupancy="0.77" waitingTime="0.00" timeLoss="39.48" speed="7.04" speedRelative="0.85" departed="2" arrived="0" entered="42" left="44" laneChangedFrom="0" laneChangedTo="0"/>
        <edge id="-1095407474#2" sampledSeconds="251.79" traveltime="4.89" overlapTraveltime="5.49" density="2.01" laneDensity="2.01" occupancy="0.77" waitingTime="0.00" timeLoss="31.52" speed="7.17" speedRelative="0.86" departed="1" arrived="4" entered="45" left="42" laneChangedFrom="0" laneChangedTo="0"/>
        <edge id="-1095407474#3" sampledSeconds="283.01" traveltime="5.56" overlapTraveltime="6.15" density="2.02" laneDensity="2.02" occupancy="0.77" waitingTime="0.00" timeLoss="39.31" speed="7.05" speedRelative="0.85" departed="1" arrived="1" entered="45" left="45" laneChangedFrom="0" laneChangedTo="0"/>
        <edge id="-1097500694" sampledSeconds="0.00" departed="0" arrived="0" entered="0" left="0" laneChangedFrom="0" laneChangedTo="0"/>
        <edge id="-1097500696" sampledSeconds="0.00" departed="0" arrived="0" entered="0" left="0" laneChangedFrom="0" laneChangedTo="0"/>
        <edge id="-1098856682#0" sampledSeconds="358.52" traveltime="7.03" overlapTraveltime="7.63" density="1.94" laneDensity="1.94" occupancy="0.81" waitingTime="0.00" timeLoss="41.47" speed="7.32" speedRelative="0.88" departed="2" arrived="0" entered="45" left="47" laneChangedFrom="0" laneChangedTo="0"/>
        <edge id="-1098856683#0" sampledSeconds="226.13" traveltime="3.56" overlapTraveltime="4.24" density="4.50" laneDensity="4.50" occupancy="1.50" waitingTime="56.00" timeLoss="107.77" speed="4.27" speedRelative="0.51" departed="3" arrived="3" entered="50" left="50" laneChangedFrom="0" laneChangedTo="0"/>
        <edge id="-1098856683#1" sampledSeconds="124.30" traveltime="1.89" overlapTraveltime="2.54" density="2.62" laneDensity="2.62" occupancy="0.91" waitingTime="0.00" timeLoss="17.90" speed="7.09" speedRelative="0.85" departed="2" arrived="0" entered="48" left="50" laneChangedFrom="0" laneChangedTo="0"/>
        <edge id="-1098856743" sampledSeconds="312.52" traveltime="9.01" overlapTraveltime="9.85" density="1.44" laneDensity="1.44" occupancy="0.63" waitingTime="6.00" timeLoss="59.48" speed="6.62" speedRelative="0.79" departed="2" arrived="4" entered="30" left="28" laneChangedFrom="0" laneChangedTo="0"/>
        <edge id="-1098856744" sampledSeconds="373.72" traveltime="4.33" overlapTraveltime="5.09" density="3.31" laneDensity="3.31" occupancy="1.56" waitingTime="0.00" timeLoss="43.86" speed="7.28" speedRelative="0.87" departed="3" arrived="1" entered="71" left="73" laneChangedFrom="0" laneChangedTo="0"/>
        <edge id="-1100646993" sampledSeconds="1424.32" traveltime="64.57" overlapTraveltime="66.56" density="2.70" laneDensity="2.70" occupancy="1.49" waitingTime="0.00" timeLoss="307.53" speed="2.29" speedRelative="0.82" departed="4" arrived="2" entered="18" left="19" laneChangedFrom="0" laneChangedTo="0"/>
        <edge id="-1100646994" sampledSeconds="3.01" traveltime="0.09" overlapTraveltime="2.58" density="4.18" laneDensity="4.18" occupancy="0.08" waitingTime="0.00" timeLoss="0.61" speed="2.26" speedRelative="0.81" departed="0" arrived="4" entered="4" left="0" laneChangedFrom="0" laneChangedTo="0"/>
        <edge id="-1101404244" sampledSeconds="15.65" traveltime="4.15" overlapTraveltime="6.53" density="0.36" laneDensity="0.36" occupancy="0.21" waitingTime="0.00" timeLoss="9.59" speed="3.08" speedRelative="0.37" departed="4" arrived="0" entered="0" left="4" laneChangedFrom="0" laneChangedTo="0"/>
        <edge id="-1101405165#1" sampledSeconds="163.05" traveltime="15.92" overlapTraveltime="16.68" density="0.37" laneDensity="0.37" occupancy="0.21" waitingTime="0.00" timeLoss="11.86" speed="7.61" speedRelative="0.91" departed="0" arrived="10" entered="10" left="0" laneChangedFrom="0" laneChangedTo="0"/>
        <edge id="-1101405166" sampledSeconds="170.03" traveltime="14.53" overlapTraveltime="15.74" density="0.58" laneDensity="0.58" occupancy="0.28" waitingTime="22.00" timeLoss="58.59" speed="5.55" speedRelative="0.67" departed="4" arrived="1" entered="7" left="10" laneChangedFrom="0" laneChangedTo="0"/>
        <edge id="-1101405168" sampledSeconds="114.55" traveltime="7.41" overlapTraveltime="8.62" density="0.66" laneDensity="0.33" occupancy="0.18" waitingTime="27.00" timeLoss="62.19" speed="6.33" speedRelative="0.46" departed="15" arrived="0" entered="0" left="15" laneChangedFrom="1" laneChangedTo="1"/>
        <edge id="-1101405300" sampledSeconds="11.98" traveltime="0.47" overlapTraveltime="1.47" density="1.43" laneDensity="1.43" occupancy="0.23" waitingTime="0.00" timeLoss="2.95" speed="5.26" speedRelative="0.63" departed="0" arrived="7" entered="11" left="4" laneChangedFrom="0" laneChangedTo="0"/>
        <edge id="-110464119" sampledSeconds="19.65" overlapTraveltime="3.36" density="2.39" laneDensity="2.39" occupancy="0.47" waitingTime="0.00" timeLoss="13.67" speed="2.47" speedRelative="0.30" departed="9" arrived="0" entered="0" left="9" laneChangedFrom="0" laneChangedTo="0"/>
        <edge id="-1117432800" sampledSeconds="0.00" departed="0" arrived="0" entered="0" left="0" laneChangedFrom="0" laneChangedTo="0"/>
        <edge id="-1119855803#0" sampledSeconds="4.83" traveltime="4.48" overlapTraveltime="5.29" density="0.05" laneDensity="0.05" occupancy="0.01" waitingTime="0.00" timeLoss="1.82" speed="5.03" speedRelative="0.60" departed="1" arrived="0" entered="0" left="1" laneChangedFrom="0" laneChangedTo="0"/>
        <edge id="-1119855803#1" sampledSeconds="66.35" traveltime="2.50" overlapTraveltime="3.29" density="1.17" laneDensity="1.17" occupancy="0.38" waitingTime="0.00" timeLoss="11.14" speed="6.15" speedRelative="0.74" departed="4" arrived="0" entered="17" left="21" laneChangedFrom="0" laneChangedTo="0"/>
        <edge id="-1121008013" sampledSeconds="27.09" traveltime="0.05" overlapTraveltime="1.78" density="37.62" laneDensity="37.62" occupancy="0.72" waitingTime="0.00" timeLoss="8.13" speed="3.51" speedRelative="0.42" departed="0" arrived="8" entered="22" left="14" laneChangedFrom="0" laneChangedTo="0"/>
        <edge id="-112128825" sampledSeconds="28.77" traveltime="0.06" overlapTraveltime="1.88" density="39.96" laneDensity="39.96" occupancy="0.77" waitingTime="0.00" timeLoss="9.55" speed="3.64" speedRelative="0.44" departed="0" arrived="4" entered="19" left="15" laneChangedFrom="0" laneChangedTo="0"/>
        <edge id="-1122497068" sampledSeconds="249.43" traveltime="5.60" overlapTraveltime="7.04" density="1.44" laneDensity="1.44" occupancy="0.64" waitingTime="0.00" timeLoss="90.55" speed="7.62" speedRelative="0.55" departed="5" arrived="5" entered="31" left="31" laneChangedFrom="0" laneChangedTo="0"/>
        <edge id="-1133761626" sampledSeconds="861.66" traveltime="10.71" overlapTraveltime="11.36" density="3.18" laneDensity="3.18" occupancy="1.39" waitingTime="0.00" timeLoss="118.29" speed="7.05" speedRelative="0.85" departed="3" arrived="1" entered="73" left="75" laneChangedFrom="0" laneChangedTo="0"/>
        <edge id="-1133761629" sampledSeconds="58.22" traveltime="6.63" overlapTraveltime="7.30" density="0.39" laneDensity="0.39" occupancy="0.13" waitingTime="0.00" timeLoss="10.33" speed="6.17" speedRelative="0.74" departed="1" arrived="0" entered="7" left="8" laneChangedFrom="0" laneChangedTo="0"/>
        <edge id="-1133992722" sampledSeconds="97.89" traveltime="0.05" overlapTraveltime="6.15" density="135.96" laneDensity="135.96" occupancy="2.71" waitingTime="84.00" timeLoss="87.88" speed="0.86" speedRelative="0.10" departed="9" arrived="0" entered="8" left="17" laneChangedFrom="0" laneChangedTo="0"/>
        <edge id="-1133992729#0" sampledSeconds="5310.40" traveltime="55.44" overlapTraveltime="56.44" density="107.99" laneDensity="107.99" occupancy="53.31" waitingTime="5026.00" timeLoss="5081.26" speed="0.33" speedRelative="0.04" departed="0" arrived="1" entered="95" left="92" laneChangedFrom="0" laneChangedTo="0"/>
        <edge id="-1133992729#1" sampledSeconds="2680.93" traveltime="27.47" overlapTraveltime="28.04" density="75.37" laneDensity="75.37" occupancy="36.76" waitingTime="2483.00" timeLoss="2508.87" speed="0.53" speedRelative="0.06" departed="1" arrived="0" entered="95" left="95" laneChangedFrom="0" laneChangedTo="0"/>
        <edge id="-1133992729#10" sampledSeconds="2777.60" traveltime="27.91" overlapTraveltime="37.95" density="55.95" laneDensity="55.95" occupancy="61.81" waitingTime="2489.00" timeLoss="2557.85" speed="0.66" speedRelative="0.08" departed="0" arrived="0" entered="97" left="96" laneChangedFrom="0" laneChangedTo="0"/>
        <edge id="-1133992729#11" sampledSeconds="227.27" traveltime="0.62" overlapTraveltime="3.15" density="15.40" laneDensity="15.40" occupancy="4.70" waitingTime="91.00" timeLoss="118.65" speed="3.99" speedRelative="0.48" departed="2" arrived="0" entered="96" left="98" laneChangedFrom="0" laneChangedTo="0"/>
        <edge id="-1133992729#3" sampledSeconds="2626.61" traveltime="26.98" overlapTraveltime="20.52" density="136.12" laneDensity="136.12" occupancy="30.26" waitingTime="2481.00" timeLoss="2507.25" speed="0.38" speedRelative="0.05" departed="1" arrived="0" entered="95" left="95" laneChangedFrom="0" laneChangedTo="0"/>
        <edge id="-1133992729#4" sampledSeconds="72.15" traveltime="0.03" overlapTraveltime="0.92" density="100.21" laneDensity="100.21" occupancy="1.93" waitingTime="0.00" timeLoss="11.67" speed="7.00" speedRelative="0.84" departed="2" arrived="1" entered="95" left="96" laneChangedFrom="0" laneChangedTo="0"/>
        <edge id="-1133992729#6" sampledSeconds="81.47" traveltime="0.06" overlapTraveltime="1.06" density="75.44" laneDensity="75.44" occupancy="2.12" waitingTime="0.00" timeLoss="19.95" speed="6.30" speedRelative="0.76" departed="4" arrived="0" entered="93" left="97" laneChangedFrom="0" laneChangedTo="0"/>
        <edge id="-1133992729#7" sampledSeconds="2734.21" traveltime="27.67" overlapTraveltime="28.66" density="73.88" laneDensity="73.88" occupancy="36.17" waitingTime="2485.00" timeLoss="2558.05" speed="0.54" speedRelative="0.06" departed="0" arrived="2" entered="96" left="93" laneChangedFrom="0" laneChangedTo="0"/>
        <edge id="-1138687773" sampledSeconds="0.00" departed="0" arrived="0" entered="0" left="0" laneChangedFrom="0" laneChangedTo="0"/>
        <edge id="-1138687774" sampledSeconds="0.00" departed="0" arrived="0" entered="0" left="0" laneChangedFrom="0" laneChangedTo="0"/>
        <edge id="-1138687775" sampledSeconds="0.00" departed="0" arrived="0" entered="0" left="0" laneChangedFrom="0" laneChangedTo="0"/>
        <edge id="-1138687776" sampledSeconds="0.00" departed="0" arrived="0" entered="0" left="0" laneChangedFrom="0" laneChangedTo="0"/>
        <edge id="-1138687777" sampledSeconds="0.00" departed="0" arrived="0" entered="0" left="0" laneChangedFrom="0" laneChangedTo="0"/>
        <edge id="-1138687778" sampledSeconds="0.00" departed="0" arrived="0" entered="0" left="0" laneChangedFrom="0" laneChangedTo="0"/>
        <edge id="-1138687779" sampledSeconds="0.00" departed="0" arrived="0" entered="0" left="0" laneChangedFrom="0" laneChangedTo="0"/>
        <edge id="-1138687780" sampledSeconds="0.00" departed="0" arrived="0" entered="0" left="0" laneChangedFrom="0" laneChangedTo="0"/>
        <edge id="-1138687781" sampledSeconds="0.00" departed="0" arrived="0" entered="0" left="0" laneChangedFrom="0" laneChangedTo="0"/>
        <edge id="-1138696720#0" sampledSeconds="4012.06" traveltime="55.57" overlapTraveltime="133.29" density="105.44" laneDensity="105.44" occupancy="42.70" waitingTime="3932.00" timeLoss="3943.27" speed="0.14" speedRelative="0.02" departed="0" arrived="2" entered="37" left="34" laneChangedFrom="0" laneChangedTo="0"/>
        <edge id="-1138696720#3" sampledSeconds="5223.92" traveltime="133.31" overlapTraveltime="134.10" density="63.62" laneDensity="63.62" occupancy="34.19" waitingTime="5057.00" timeLoss="5091.41" speed="0.21" speedRelative="0.03" departed="2" arrived="1" entered="39" left="37" laneChangedFrom="0" laneChangedTo="0"/>