<?xml version="1.0" encoding="UTF-8"?>

<!-- generated on 2025-10-05 13:41:02 by Eclipse SUMO sumo Version 1.24.0
<sumoConfiguration xmlns:xsi="http://www.w3.org/2001/XMLSchema-instance" xsi:noNamespaceSchemaLocation="http://sumo.dlr.de/xsd/sumoConfiguration.xsd">

    <input>
        <net-file value="C:\Projects\FDRL-Traffic\FDRL\sumo_files\Berlin\osm.net.xml.gz"/>
        <route-files value="C:\Projects\FDRL-Traffic\FDRL\sumo_files\Berlin\osm_pt.rou.xml,C:\Projects\FDRL-Traffic\FDRL\sumo_files\Berlin\osm.bus.trips.xml,C:\Projects\FDRL-Traffic\FDRL\sumo_files\Berlin\osm.motorcycle.trips.xml,C:\Projects\FDRL-Traffic\FDRL\sumo_files\Berlin\osm.passenger.trips.xml,C:\Projects\FDRL-Traffic\FDRL\sumo_files\Berlin\osm.truck.trips.xml"/>
        <additional-files value="C:\Projects\FDRL-Traffic\FDRL\sumo_files\Berlin\osm.poly.xml.gz,C:\Projects\FDRL-Traffic\FDRL\sumo_files\Berlin\osm_stops.add.xml,C:\Projects\FDRL-Traffic\FDRL\sumo_files\Berlin\output.add.xml"/>
    </input>

    <output>
        <tripinfo-output value="C:\Projects\FDRL-Traffic\FDRL\sumo_files\Berlin\tripinfos.xml"/>
        <stop-output value="C:\Projects\FDRL-Traffic\FDRL\sumo_files\Berlin\stopinfos.xml"/>
        <statistic-output value="C:\Projects\FDRL-Traffic\FDRL\sumo_files\Berlin\stats.xml"/>
    </output>

    <processing>
        <ignore-route-errors value="true"/>
        <tls.actuated.jam-threshold value="30"/>
    </processing>

    <routing>
        <device.rerouting.adaptation-steps value="18"/>
        <device.rerouting.adaptation-interval value="10"/>
    </routing>

    <report>
        <verbose value="true"/>
        <duration-log.statistics value="true"/>
        <no-step-log value="true"/>
   -->

<meandata xmlns:xsi="http://www.w3.org/2001/XMLSchema-instance" xsi:noNamespaceSchemaLocation="http://sumo.dlr.de/xsd/meandata_file.xsd">
</meandata>
RL-Traffic\FDRL\sumo_files\Berlin\osm.view.xml"/>
    </gui_only>

</sumoConfiguration>
-->

<meandata xmlns:xsi="http://www.w3.org/2001/XMLSchema-instance" xsi:noNamespaceSchemaLocation="http://sumo.dlr.de/xsd/meandata_file.xsd">
    <interval begin="0.00" end="3600.00" id="wizard_example">
        <edge id="-1015063876" sampledSeconds="0.00" departed="0" arrived="0" entered="0" left="0" laneChangedFrom="0" laneChangedTo="0"/>
        <edge id="-1015063877" sampledSeconds="0.00" departed="0" arrived="0" entered="0" left="0" laneChangedFrom="0" laneChangedTo="0"/>
        <edge id="-1015063879" sampledSeconds="0.00" departed="0" arrived="0" entered="0" left="0" laneChangedFrom="0" laneChangedTo="0"/>
        <edge id="-1015063883" sampledSeconds="0.00" departed="0" arrived="0" entered="0" left="0" laneChangedFrom="0" laneChangedTo="0"/>
        <edge id="-1015063886" sampledSeconds="0.00" departed="0" arrived="0" entered="0" left="0" laneChangedFrom="0" laneChangedTo="0"/>
        <edge id="-1020468799" sampledSeconds="65.20" traveltime="0.04" overlapTraveltime="1.34" density="90.55" laneDensity="90.55" occupancy="1.75" waitingTime="0.00" timeLoss="18.73" speed="5.94" speedRelative="0.71" departed="2" arrived="2" entered="61" left="61" laneChangedFrom="0" laneChangedTo="0"/>
        <edge id="-1020468803" sampledSeconds="47.18" traveltime="0.44" overlapTraveltime="1.72" density="4.07" laneDensity="4.07" occupancy="0.92" waitingTime="0.00" timeLoss="12.95" speed="5.99" speedRelative="0.72" departed="6" arrived="4" entered="28" left="30" laneChangedFrom="0" laneChangedTo="0" vaporized="1"/>
        <edge id="-1024034686#0" sampledSeconds="41.83" traveltime="0.02" overlapTraveltime="0.82" density="77.47" laneDensity="77.47" occupancy="1.13" waitingTime="0.00" timeLoss="4.30" speed="7.36" speedRelative="0.88" departed="2" arrived="2" entered="61" left="61" laneChangedFrom="0" laneChangedTo="0"/>
        <edge id="-1024034686#1" sampledSeconds="377.81" traveltime="4.07" overlapTraveltime="5.05" density="212.77" laneDensity="212.77" occupancy="10.27" waitingTime="310.00" timeLoss="322.25" speed="1.08" speedRelative="0.13" departed="3" arrived="1" entered="77" left="79" laneChangedFrom="0" laneChangedTo="0" teleported="1"/>
        <edge id="-1024034687#0" sampledSeconds="64.39" traveltime="0.05" overlapTraveltime="1.61" density="99.37" laneDensity="99.37" occupancy="1.73" waitingTime="0.00" timeLoss="20.82" speed="3.66" speedRelative="0.44" departed="0" arrived="14" entered="49" left="35" laneChangedFrom="0" laneChangedTo="0"/>
        <edge id="-1024034687#1" sampledSeconds="59.29" traveltime="0.43" overlapTraveltime="1.30" density="5.26" laneDensity="5.26" occupancy="1.03" waitingTime="0.00" timeLoss="9.29" speed="6.97" speedRelative="0.84" departed="1" arrived="3" entered="49" left="47" laneChangedFrom="0" laneChangedTo="0"/>
        <edge id="-1024034687#11" sampledSeconds="48.08" traveltime="0.02" overlapTraveltime="0.91" density="78.56" laneDensity="78.56" occupancy="1.29" waitingTime="0.00" timeLoss="9.35" speed="6.62" speedRelative="0.79" departed="3" arrived="2" entered="61" left="62" laneChangedFrom="0" laneChangedTo="0"/>
        <edge id="-1024034687#2" sampledSeconds="44.59" traveltime="0.06" overlapTraveltime="1.01" density="30.21" laneDensity="30.21" occupancy="1.16" waitingTime="0.00" timeLoss="9.52" speed="6.51" speedRelative="0.78" departed="3" arrived="4" entered="50" left="49" laneChangedFrom="0" laneChangedTo="0"/>
        <edge id="-1024034687#3" sampledSeconds="40.19" traveltime="0.05" overlapTraveltime="0.89" density="32.83" laneDensity="32.83" occupancy="1.05" waitingTime="0.00" timeLoss="5.52" speed="7.14" speedRelative="0.86" departed="2" arrived="3" entered="51" left="50" laneChangedFrom="0" laneChangedTo="0"/>
        <edge id="-1024034687#5" sampledSeconds="130.78" traveltime="1.58" overlapTraveltime="2.30" density="3.14" laneDensity="3.14" occupancy="1.09" waitingTime="0.00" timeLoss="14.50" speed="7.33" speedRelative="0.88" departed="0" arrived="7" entered="58" left="51" laneChangedFrom="0" laneChangedTo="0"/>
        <edge id="-1024034687#6" sampledSeconds="178.15" traveltime="2.41" overlapTraveltime="3.11" density="2.87" laneDensity="2.87" occupancy="1.10" waitingTime="0.00" timeLoss="22.62" speed="7.20" speedRelative="0.86" departed="2" arrived="0" entered="56" left="58" laneChangedFrom="0" laneChangedTo="0"/>
        <edge id="-1024034687#7" sampledSeconds="54.75" traveltime="0.21" overlapTraveltime="1.06" density="9.75" laneDensity="9.75" occupancy="1.18" waitingTime="0.00" timeLoss="8.73" speed="6.96" speedRelative="0.84" departed="3" arrived="2" entered="56" left="57" laneChangedFrom="0" laneChangedTo="0"/>
        <edge id="-1024034687#8" sampledSeconds="355.55" traveltime="5.51" overlapTraveltime="6.19" density="2.42" laneDensity="2.42" occupancy="1.07" waitingTime="0.00" timeLoss="37.43" speed="7.41" speedRelative="0.89" departed="0" arrived="1" entered="58" left="56" laneChangedFrom="0" laneChangedTo="0"/>
        <edge id="-1024034687#9" sampledSeconds="42.22" traveltime="0.03" overlapTraveltime="0.83" density="58.63" laneDensity="58.63" occupancy="1.13" waitingTime="0.00" timeLoss="4.28" speed="7.38" speedRelative="0.89" departed="0" arrived="4" entered="62" left="58" laneChangedFrom="0" laneChangedTo="0"/>
        <edge id="-102984483#0" sampledSeconds="679.93" traveltime="1.22" overlapTraveltime="2.04" density="20.09" laneDensity="20.09" occupancy="7.06" waitingTime="111.00" timeLoss="285.60" speed="7.41" speedRelative="0.53" departed="2" arrived="2" entered="343" left="341" laneChangedFrom="0" laneChangedTo="0"/>
        <edge id="-102984483#1" sampledSeconds="3845.30" traveltime="10.47" overlapTraveltime="10.95" density="17.33" laneDensity="17.33" occupancy="8.44" waitingTime="1558.00" timeLoss="2139.31" speed="6.11" speedRelative="0.44" departed="2" arrived="4" entered="353" left="343" laneChangedFrom="0" laneChangedTo="0"/>
        <edge id="-1052675176#0" sampledSeconds="320.48" traveltime="2.14" overlapTraveltime="2.78" density="5.80" laneDensity="5.80" occupancy="2.00" waitingTime="0.00" timeLoss="41.78" speed="7.23" speedRelative="0.87" departed="3" arrived="2" entered="114" left="115" laneChangedFrom="0" laneChangedTo="0"/>
        <edge id="-1052675176#1" sampledSeconds="214.52" traveltime="1.28" overlapTraveltime="1.93" density="6.45" laneDensity="6.45" occupancy="1.93" waitingTime="0.00" timeLoss="25.14" speed="7.35" speedRelative="0.88" departed="0" arrived="0" entered="114" left="114" laneChangedFrom="0" laneChangedTo="0"/>
        <edge id="-1052675176#2" sampledSeconds="78.80" traveltime="0.03" overlapTraveltime="0.88" density="109.44" laneDensity="109.44" occupancy="2.10" waitingTime="0.00" timeLoss="13.22" speed="6.95" speedRelative="0.83" departed="5" arrived="1" entered="110" left="114" laneChangedFrom="0" laneChangedTo="0"/>
        <edge id="-1052675176#3" sampledSeconds="324.10" traveltime="2.27" overlapTraveltime="2.94" density="5.73" laneDensity="5.73" occupancy="2.01" waitingTime="0.00" timeLoss="51.52" speed="6.98" speedRelative="0.84" departed="3" arrived="2" entered="109" left="110" laneChangedFrom="0" laneChangedTo="0"/>
        <edge id="-1052675176#5" sampledSeconds="348.77" traveltime="2.53" overlapTraveltime="3.18" density="5.61" laneDensity="5.61" occupancy="2.01" waitingTime="0.00" timeLoss="56.86" speed="6.96" speedRelative="0.84" departed="2" arrived="2" entered="109" left="109" laneChangedFrom="0" laneChangedTo="0"/>
        <edge id="-1052675177#0" sampledSeconds="3666.38" traveltime="12.92" overlapTraveltime="13.92" density="46.57" laneDensity="46.57" occupancy="21.56" waitingTime="2197.00" timeLoss="2800.00" speed="1.95" speedRelative="0.23" departed="1" arrived="2" entered="267" left="263" laneChangedFrom="0" laneChangedTo="0"/>
        <edge id="-1052675177#2" sampledSeconds="1505.61" traveltime="6.91" overlapTraveltime="7.85" density="52.08" laneDensity="52.08" occupancy="18.38" waitingTime="890.00" timeLoss="1205.81" speed="1.64" speedRelative="0.20" departed="6" arrived="1" entered="183" left="187" laneChangedFrom="0" laneChangedTo="0"/>
        <edge id="-1052675227#0" sampledSeconds="41.76" traveltime="0.03" overlapTraveltime="0.94" density="58.00" laneDensity="58.00" occupancy="1.12" waitingTime="0.00" timeLoss="2.63" speed="7.79" speedRelative="0.94" departed="1" arrived="4" entered="54" left="51" laneChangedFrom="0" laneChangedTo="0"/>
        <edge id="-1052675227#2" sampledSeconds="46.91" traveltime="0.03" overlapTraveltime="1.00" density="65.15" laneDensity="65.15" occupancy="1.26" waitingTime="0.00" timeLoss="4.99" speed="7.44" speedRelative="0.89" departed="1" arrived="5" entered="58" left="54" laneChangedFrom="0" laneChangedTo="0"/>
        <edge id="-1052675227#3" sampledSeconds="109.61" traveltime="1.09" overlapTraveltime="1.98" density="4.02" laneDensity="4.02" occupancy="1.34" waitingTime="0.00" timeLoss="15.57" speed="7.13" speedRelative="0.86" departed="1" arrived="0" entered="57" left="58" laneChangedFrom="0" laneChangedTo="0"/>
        <edge id="-1052675227#4" sampledSeconds="51.52" traveltime="0.03" overlapTraveltime="1.15" density="71.56" laneDensity="71.56" occupancy="1.39" waitingTime="0.00" timeLoss="9.01" speed="6.89" speedRelative="0.83" departed="2" arrived="0" entered="55" left="57" laneChangedFrom="0" laneChangedTo="0"/>
        <edge id="-1052675227#5" sampledSeconds="92.79" traveltime="0.81" overlapTraveltime="1.77" density="4.44" laneDensity="4.44" occupancy="1.34" waitingTime="0.00" timeLoss="14.54" speed="7.01" speedRelative="0.84" departed="2" arrived="2" entered="55" left="55" laneChangedFrom="0" laneChangedTo="0"/>
        <edge id="-1052675227#6" sampledSeconds="286.24" traveltime="4.43" overlapTraveltime="5.18" density="2.49" laneDensity="2.49" occupancy="1.18" waitingTime="0.00" timeLoss="34.54" speed="7.27" speedRelative="0.87" departed="5" arrived="1" entered="51" left="55" laneChangedFrom="0" laneChangedTo="0"/>
        <edge id="-1052675228" sampledSeconds="592.96" traveltime="12.97" overlapTraveltime="13.77" density="1.94" laneDensity="1.94" occupancy="0.80" waitingTime="19.00" timeLoss="123.03" speed="6.49" speedRelative="0.78" departed="3" arrived="3" entered="41" left="40" laneChangedFrom="0" laneChangedTo="0"/>
        <edge id="-1052734946" sampledSeconds="24.45" traveltime="3.44" overlapTraveltime="4.33" density="0.29" laneDensity="0.29" occupancy="0.13" waitingTime="0.00" timeLoss="4.01" speed="6.67" speedRelative="0.80" departed="0" arrived="5" entered="6" left="1" laneChangedFrom="0" laneChangedTo="0"/>
        <edge id="-1052756577" sampledSeconds="88.39" traveltime="12.13" overlapTraveltime="12.82" density="0.28" laneDensity="0.28" occupancy="0.13" waitingTime="0.00" timeLoss="8.31" speed="7.26" speedRelative="0.87" departed="0" arrived="7" entered="7" left="0" laneChangedFrom="0" laneChangedTo="0"/>
        <edge id="-1052756578#0" sampledSeconds="167.23" traveltime="3.20" overlapTraveltime="4.11" density="3.27" laneDensity="3.27" occupancy="1.23" waitingTime="24.00" timeLoss="72.98" speed="4.61" speedRelative="0.55" departed="2" arrived="1" entered="39" left="40" laneChangedFrom="0" laneChangedTo="0"/>
        <edge id="-1052756578#1" sampledSeconds="216.08" traveltime="4.45" overlapTraveltime="5.07" density="1.87" laneDensity="1.87" occupancy="0.75" waitingTime="0.00" timeLoss="26.49" speed="7.27" speedRelative="0.87" departed="2" arrived="4" entered="41" left="39" laneChangedFrom="0" laneChangedTo="0"/>
        <edge id="-1052756578#2" sampledSeconds="282.65" traveltime="5.83" overlapTraveltime="6.43" density="1.85" laneDensity="1.85" occupancy="0.74" waitingTime="0.00" timeLoss="34.33" speed="7.30" speedRelative="0.88" departed="0" arrived="3" entered="44" left="41" laneChangedFrom="0" laneChangedTo="0"/>
        <edge id="-1052757284#0" sampledSeconds="214.64" traveltime="9.01" overlapTraveltime="9.77" density="0.93" laneDensity="0.93" occupancy="0.41" waitingTime="0.00" timeLoss="27.32" speed="7.04" speedRelative="0.85" departed="1" arrived="0" entered="21" left="22" laneChangedFrom="0" laneChangedTo="0"/>
        <edge id="-1052757284#1" sampledSeconds="135.30" traveltime="4.62" overlapTraveltime="5.27" density="1.15" laneDensity="1.15" occupancy="0.48" waitingTime="0.00" timeLoss="16.51" speed="7.16" speedRelative="0.86" departed="1" arrived="5" entered="25" left="21" laneChangedFrom="0" laneChangedTo="0"/>
        <edge id="-1052758514#0" sampledSeconds="234.08" traveltime="11.71" overlapTraveltime="12.38" density="0.81" laneDensity="0.81" occupancy="0.29" waitingTime="0.00" timeLoss="37.47" speed="6.79" speedRelative="0.82" departed="1" arrived="4" entered="18" left="15" laneChangedFrom="0" laneChangedTo="0"/>
        <edge id="-1052758514#1" sampledSeconds="226.78" traveltime="4.20" overlapTraveltime="5.14" density="2.30" laneDensity="2.30" occupancy="1.09" waitingTime="4.00" timeLoss="48.95" speed="6.48" speedRelative="0.78" departed="1" arrived="2" entered="44" left="43" laneChangedFrom="0" laneChangedTo="0"/>
        <edge id="-1052758758#0" sampledSeconds="2408.86" traveltime="8.83" overlapTraveltime="9.73" density="11.40" laneDensity="11.40" occupancy="5.45" waitingTime="71.00" timeLoss="496.63" speed="6.57" speedRelative="0.79" departed="1" arrived="5" entered="248" left="242" laneChangedFrom="0" laneChangedTo="0"/>
        <edge id="-1052758758#1" sampledSeconds="2709.13" traveltime="10.14" overlapTraveltime="10.83" density="10.12" laneDensity="10.12" occupancy="4.82" waitingTime="0.00" timeLoss="306.36" speed="7.35" speedRelative="0.88" departed="2" arrived="2" entered="249" left="248" laneChangedFrom="0" laneChangedTo="0"/>
        <edge id="-1052758759" sampledSeconds="2339.57" traveltime="13.78" overlapTraveltime="14.50" density="6.48" laneDensity="6.48" occupancy="3.20" waitingTime="0.00" timeLoss="271.99" speed="7.28" speedRelative="0.87" departed="4" arrived="4" entered="158" left="157" laneChangedFrom="0" laneChangedTo="0"/>
        <edge id="-1053278664" sampledSeconds="0.00" departed="0" arrived="0" entered="0" left="0" laneChangedFrom="0" laneChangedTo="0"/>
        <edge id="-105593532#0" sampledSeconds="0.00" departed="0" arrived="0" entered="0" left="0" laneChangedFrom="0" laneChangedTo="0"/>
        <edge id="-105593532#1" sampledSeconds="0.00" departed="0" arrived="0" entered="0" left="0" laneChangedFrom="0" laneChangedTo="0"/>
        <edge id="-1056637173" sampledSeconds="0.00" departed="0" arrived="0" entered="0" left="0" laneChangedFrom="0" laneChangedTo="0"/>
        <edge id="-1070046769#0" sampledSeconds="0.00" departed="0" arrived="0" entered="0" left="0" laneChangedFrom="0" laneChangedTo="0"/>
        <edge id="-1070046769#1" sampledSeconds="0.00" departed="0" arrived="0" entered="0" left="0" laneChangedFrom="0" laneChangedTo="0"/>
        <edge id="-1071210942" sampledSeconds="0.00" departed="0" arrived="0" entered="0" left="0" laneChangedFrom="0" laneChangedTo="0"/>
        <edge id="-1077117221#1" sampledSeconds="0.00" departed="0" arrived="0" entered="0" left="0" laneChangedFrom="0" laneChangedTo="0"/>
        <edge id="-1085484772" sampledSeconds="0.00" departed="0" arrived="0" entered="0" left="0" laneChangedFrom="0" laneChangedTo="0"/>
        <edge id="-1085484775" sampledSeconds="0.00" departed="0" arrived="0" entered="0" left="0" laneChangedFrom="0" laneChangedTo="0"/>
        <edge id="-1085484776" sampledSeconds="0.00" departed="0" arrived="0" entered="0" left="0" laneChangedFrom="0" laneChangedTo="0"/>
        <edge id="-1094013594" sampledSeconds="0.00" departed="0" arrived="0" entered="0" left="0" laneChangedFrom="0" laneChangedTo="0"/>
        <edge id="-1094013595" sampledSeconds="0.00" departed="0" arrived="0" entered="0" left="0" laneChangedFrom="0" laneChangedTo="0"/>
        <edge id="-1095165529" sampledSeconds="16.23" overlapTraveltime="2.20" density="22.54" laneDensity="22.54" occupancy="0.45" waitingTime="0.00" timeLoss="10.51" speed="2.98" speedRelative="0.36" departed="8" arrived="0" entered="0" left="8" laneChangedFrom="0" laneChangedTo="0"/>
        <edge id="-1095407474#1" sampledSeconds="555.93" traveltime="5.67" overlapTraveltime="6.41" density="3.88" laneDensity="3.88" occupancy="1.75" waitingTime="0.00" timeLoss="78.71" speed="7.03" speedRelative="0.84" departed="2" arrived="0" entered="85" left="87" laneChangedFrom="0" laneChangedTo="0"/>
        <edge id="-1095407474#2" sampledSeconds="501.20" traveltime="4.94" overlapTraveltime="5.65" density="3.99" laneDensity="3.99" occupancy="1.75" waitingTime="0.00" timeLoss="66.99" speed="7.09" speedRelative="0.85" departed="1" arrived="4" entered="88" left="85" laneChangedFrom="0" laneChangedTo="0"/>
        <edge id="-1095407474#3" sampledSeconds="567.37" traveltime="5.54" overlapTraveltime="6.23" density="4.05" laneDensity="4.05" occupancy="1.76" waitingTime="0.00" timeLoss="77.29" speed="7.06" speedRelative="0.85" departed="1" arrived="3" entered="90" left="88" laneChangedFrom="0" laneChangedTo="0"/>
        <edge id="-1097500694" sampledSeconds="0.00" departed="0" arrived="0" entered="0" left="0" laneChangedFrom="0" laneChangedTo="0"/>
        <edge id="-1097500696" sampledSeconds="0.00" departed="0" arrived="0" entered="0" left="0" laneChangedFrom="0" laneChangedTo="0"/>
        <edge id="-1098856682#0" sampledSeconds="869.09" traveltime="7.11" overlapTraveltime="7.80" density="4.71" laneDensity="4.71" occupancy="2.15" waitingTime="0.00" timeLoss="108.33" speed="7.23" speedRelative="0.87" departed="2" arrived="0" entered="111" left="112" laneChangedFrom="0" laneChangedTo="0" vaporized="1"/>
        <edge id="-1098856683#0" sampledSeconds="366.99" traveltime="2.35" overlapTraveltime="3.25" density="7.30" laneDensity="7.30" occupancy="2.89" waitingTime="12.00" timeLoss="99.94" speed="5.98" speedRelative="0.72" departed="3" arrived="3" entered="113" left="113" laneChangedFrom="0" laneChangedTo="0"/>
        <edge id="-1098856683#1" sampledSeconds="295.57" traveltime="1.91" overlapTraveltime="2.66" density="6.23" laneDensity="6.23" occupancy="2.29" waitingTime="1.00" timeLoss="45.96" speed="6.98" speedRelative="0.84" departed="2" arrived="0" entered="111" left="113" laneChangedFrom="0" laneChangedTo="0"/>
        <edge id="-1098856743" sampledSeconds="338.29" traveltime="9.77" overlapTraveltime="10.64" density="1.56" laneDensity="1.56" occupancy="0.67" waitingTime="21.00" timeLoss="86.66" speed="6.12" speedRelative="0.73" departed="2" arrived="5" entered="30" left="27" laneChangedFrom="0" laneChangedTo="0"/>
        <edge id="-1098856744" sampledSeconds="417.99" traveltime="4.31" overlapTraveltime="5.07" density="3.71" laneDensity="3.71" occupancy="1.74" waitingTime="0.00" timeLoss="48.27" speed="7.30" speedRelative="0.88" departed="3" arrived="2" entered="80" left="81" laneChangedFrom="0" laneChangedTo="0"/>
        <edge id="-1100646993" sampledSeconds="1562.10" traveltime="63.82" overlapTraveltime="65.87" density="2.96" laneDensity="2.96" occupancy="1.71" waitingTime="0.00" timeLoss="321.67" speed="2.31" speedRelative="0.83" departed="4" arrived="2" entered="20" left="21" laneChangedFrom="0" laneChangedTo="0"/>
        <edge id="-1100646994" sampledSeconds="3.74" traveltime="0.08" overlapTraveltime="2.25" density="5.20" laneDensity="5.20" occupancy="0.10" waitingTime="0.00" timeLoss="0.36" speed="2.56" speedRelative="0.92" departed="0" arrived="4" entered="4" left="0" laneChangedFrom="0" laneChangedTo="0"/>
        <edge id="-1101404244" sampledSeconds="15.84" traveltime="4.55" overlapTraveltime="6.52" density="0.36" laneDensity="0.36" occupancy="0.20" waitingTime="0.00" timeLoss="9.78" speed="3.04" speedRelative="0.37" departed="4" arrived="0" entered="0" left="4" laneChangedFrom="0" laneChangedTo="0"/>
        <edge id="-1101405165#1" sampledSeconds="197.30" traveltime="16.01" overlapTraveltime="16.79" density="0.45" laneDensity="0.45" occupancy="0.26" waitingTime="0.00" timeLoss="14.41" speed="7.56" speedRelative="0.91" departed="0" arrived="12" entered="12" left="0" laneChangedFrom="0" laneChangedTo="0"/>
        <edge id="-1101405166" sampledSeconds="126.01" traveltime="15.02" overlapTraveltime="16.16" density="0.43" laneDensity="0.43" occupancy="0.20" waitingTime="12.00" timeLoss="45.01" speed="5.39" speedRelative="0.65" departed="4" arrived="1" entered="4" left="7" laneChangedFrom="0" laneChangedTo="0"/>
        <edge id="-1101405168" sampledSeconds="87.53" traveltime="6.11" overlapTraveltime="7.09" density="0.50" laneDensity="0.25" occupancy="0.14" waitingTime="12.00" timeLoss="39.41" speed="7.70" speedRelative="0.55" departed="15" arrived="0" entered="0" left="15" laneChangedFrom="0" laneChangedTo="0" vaporized="1"/>
        <edge id="-1101405300" sampledSeconds="13.79" traveltime="0.45" overlapTraveltime="1.64" density="1.65" laneDensity="1.65" occupancy="0.27" waitingTime="0.00" timeLoss="3.66" speed="5.23" speedRelative="0.63" departed="0" arrived="9" entered="13" left="4" laneChangedFrom="0" laneChangedTo="0"/>
        <edge id="-110464119" sampledSeconds="19.02" overlapTraveltime="3.26" density="2.32" laneDensity="2.32" occupancy="0.46" waitingTime="0.00" timeLoss="13.04" speed="2.55" speedRelative="0.31" departed="9" arrived="0" entered="0" left="9" laneChangedFrom="0" laneChangedTo="0"/>
        <edge id="-1117432800" sampledSeconds="0.00" departed="0" arrived="0" entered="0" left="0" laneChangedFrom="0" laneChangedTo="0"/>
        <edge id="-1119855803#0" sampledSeconds="4.02" traveltime="3.48" overlapTraveltime="4.40" density="0.05" laneDensity="0.05" occupancy="0.01" waitingTime="0.00" timeLoss="0.99" speed="6.05" speedRelative="0.73" departed="1" arrived="0" entered="0" left="1" laneChangedFrom="0" laneChangedTo="0"/>
        <edge id="-1119855803#1" sampledSeconds="65.34" traveltime="2.51" overlapTraveltime="3.41" density="1.15" laneDensity="1.15" occupancy="0.40" waitingTime="0.00" timeLoss="12.02" speed="6.05" speedRelative="0.73" departed="4" arrived="1" entered="16" left="19" laneChangedFrom="0" laneChangedTo="0"/>
        <edge id="-1121008013" sampledSeconds="28.10" traveltime="0.05" overlapTraveltime="1.78" density="39.03" laneDensity="39.03" occupancy="0.75" waitingTime="0.00" timeLoss="8.79" speed="3.45" speedRelative="0.41" departed="0" arrived="7" entered="22" left="15" laneChangedFrom="0" laneChangedTo="0"/>
        <edge id="-112128825" sampledSeconds="34.90" traveltime="0.06" overlapTraveltime="1.98" density="48.47" laneDensity="48.47" occupancy="0.94" waitingTime="0.00" timeLoss="12.61" speed="3.60" speedRelative="0.43" departed="0" arrived="7" entered="24" left="17" laneChangedFrom="0" laneChangedTo="0"/>
        <edge id="-1122497068" sampledSeconds="257.47" traveltime="5.47" overlapTraveltime="6.93" density="1.48" laneDensity="1.48" occupancy="0.70" waitingTime="0.00" timeLoss="90.93" speed="7.80" speedRelative="0.56" departed="5" arrived="6" entered="33" left="32" laneChangedFrom="0" laneChangedTo="0"/>
        <edge id="-1133761626" sampledSeconds="1063.43" traveltime="10.64" overlapTraveltime="11.33" density="3.92" laneDensity="3.92" occupancy="1.73" waitingTime="1.00" timeLoss="140.62" speed="7.07" speedRelative="0.85" departed="3" arrived="2" entered="91" left="92" laneChangedFrom="0" laneChangedTo="0"/>
        <edge id="-1133761629" sampledSeconds="61.04" traveltime="6.15" overlapTraveltime="6.82" density="0.41" laneDensity="0.41" occupancy="0.16" waitingTime="0.00" timeLoss="8.73" speed="6.68" speedRelative="0.80" departed="1" arrived="1" entered="8" left="8" laneChangedFrom="0" laneChangedTo="0"/>
        <edge id="-1133992722" sampledSeconds="21.62" traveltime="0.05" overlapTraveltime="1.07" density="30.02" laneDensity="30.02" occupancy="0.58" waitingTime="0.00" timeLoss="6.46" speed="5.92" speedRelative="0.71" departed="10" arrived="0" entered="15" left="24" laneChangedFrom="0" laneChangedTo="0"/>
        <edge id="-1133992729#0" sampledSeconds="1989.35" traveltime="6.31" overlapTraveltime="7.86" density="40.45" laneDensity="40.45" occupancy="23.42" waitingTime="1042.00" timeLoss="1330.66" speed="2.58" speedRelative="0.31" departed="2" arrived="2" entered="269" left="267" laneChangedFrom="0" laneChangedTo="0"/>
        <edge id="-1133992729#1" sampledSeconds="1371.38" traveltime="4.30" overlapTraveltime="4.92" density="38.56" laneDensity="38.56" occupancy="14.54" waitingTime="712.00" timeLoss="875.77" speed="2.99" speedRelative="0.36" departed="2" arrived="0" entered="267" left="269" laneChangedFrom="0" laneChangedTo="0"/>
        <edge id="-1133992729#10" sampledSeconds="2029.26" traveltime="6.69" overlapTraveltime="8.47" density="40.88" laneDensity="40.88" occupancy="25.55" waitingTime="1048.00" timeLoss="1414.93" speed="2.50" speedRelative="0.30" departed="3" arrived="0" entered="265" left="266" laneChangedFrom="0" laneChangedTo="0"/>
        <edge id="-1133992729#11" sampledSeconds="805.56" traveltime="1.98" overlapTraveltime="3.01" density="54.58" laneDensity="54.58" occupancy="12.59" waitingTime="393.00" timeLoss="504.31" speed="3.10" speedRelative="0.37" departed="2" arrived="0" entered="263" left="265" laneChangedFrom="0" laneChangedTo="0"/>
        <edge id="-1133992729#3" sampledSeconds="559.22" traveltime="1.30" overlapTraveltime="2.20" density="28.98" laneDensity="28.98" occupancy="8.03" waitingTime="122.00" timeLoss="212.68" speed="5.13" speedRelative="0.62" departed="3" arrived="0" entered="265" left="268" laneChangedFrom="0" laneChangedTo="0"/>
        <edge id="-1133992729#4" sampledSeconds="252.91" traveltime="0.03" overlapTraveltime="1.35" density="212.77" laneDensity="212.77" occupancy="6.80" waitingTime="24.00" timeLoss="73.86" speed="5.88" speedRelative="0.71" departed="2" arrived="2" entered="265" left="265" laneChangedFrom="0" laneChangedTo="0"/>
        <edge id="-1133992729#6" sampledSeconds="269.21" traveltime="0.06" overlapTraveltime="1.37" density="212.77" laneDensity="212.77" occupancy="7.06" waitingTime="13.00" timeLoss="86.03" speed="5.64" speedRelative="0.68" departed="4" arrived="1" entered="262" left="265" laneChangedFrom="0" laneChangedTo="0"/>
        <edge id="-1133992729#7" sampledSeconds="1321.66" traveltime="3.92" overlapTraveltime="5.07" density="35.71" laneDensity="35.71" occupancy="14.96" waitingTime="512.00" timeLoss="819.10" speed="3.14" speedRelative="0.38" departed="1" arrived="3" entered="266" left="262" laneChangedFrom="0" laneChangedTo="0"/>
        <edge id="-1138687773" sampledSeconds="0.00" departed="0" arrived="0" entered="0" left="0" laneChangedFrom="0" laneChangedTo="0"/>
        <edge id="-1138687774" sampledSeconds="0.00" departed="0" arrived="0" entered="0" left="0" laneChangedFrom="0" laneChangedTo="0"/>
        <edge id="-1138687775" sampledSeconds="0.00" departed="0" arrived="0" entered="0" left="0" laneChangedFrom="0" laneChangedTo="0"/>
        <edge id="-1138687776" sampledSeconds="0.00" departed="0" arrived="0" entered="0" left="0" laneChangedFrom="0" laneChangedTo="0"/>
        <edge id="-1138687777" sampledSeconds="0.00" departed="0" arrived="0" entered="0" left="0" laneChangedFrom="0" laneChangedTo="0"/>
        <edge id="-1138687778" sampledSeconds="0.00" departed="0" arrived="0" entered="0" left="0" laneChangedFrom="0" laneChangedTo="0"/>
        <edge id="-1138687779" sampledSeconds="0.00" departed="0" arrived="0" entered="0" left="0" laneChangedFrom="0" laneChangedTo="0"/>
        <edge id="-1138687780" sampledSeconds="0.00" departed="0" arrived="0" entered="0" left="0" laneChangedFrom="0" laneChangedTo="0"/>
        <edge id="-1138687781" sampledSeconds="0.00" departed="0" arrived="0" entered="0" left="0" laneChangedFrom="0" laneChangedTo="0"/>
        <edge id="-1138696720#0" sampledSeconds="182.99" traveltime="1.41" overlapTraveltime="2.13" density="4.81" laneDensity="4.81" occupancy="1.65" waitingTime="0.00" timeLoss="18.29" speed="7.55" speedRelative="0.91" departed="1" arrived="3" entered="87" left="85" laneChangedFrom="0" laneChangedTo="0"/>