<?xml version="1.0" encoding="UTF-8"?>

<!-- generated on 2025-11-02 02:29:28 by Eclipse SUMO GUI Version 1.24.0
<sumoConfiguration xmlns:xsi="http://www.w3.org/2001/XMLSchema-instance" xsi:noNamespaceSchemaLocation="http://sumo.dlr.de/xsd/sumoConfiguration.xsd">

    <input>
        <net-file value="sumo_files/Berlin/osm.net.xml.gz"/>
        <route-files value="sumo_files/Berlin/osm_pt.rou.xml,sumo_files/Berlin/osm.bus.trips.xml,sumo_files/Berlin/osm.motorcycle.trips.xml,sumo_files/Berlin/osm.passenger.trips.xml,sumo_files/Berlin/osm.truck.trips.xml"/>
        <additional-files value="sumo_files/Berlin/osm.poly.xml.gz,sumo_files/Berlin/osm_stops.add.xml,sumo_files/Berlin/output.add.xml,sumo_files/Berlin/generated_traffic_lights.add.xml"/>
    </input>

    <output>
        <tripinfo-output value="sumo_files/Berlin/tripinfos.xml"/>
        <stop-output value="sumo_files/Berlin/stopinfos.xml"/>
        <statistic-output value="sumo_files/Berlin/stats.xml"/>
    </output>

    <time>
        <step-length value="1.0"/>
    </time>

    <processing>
        <lateral-resolution value="0.8"/>
        <ignore-route-errors value="true"/>
        <collision.action value="warn"/>
        <collision.mingap-factor value="0.5"/>
        <time-to-teleport value="300"/>
        <time-to-teleport.highways value="0"/>
        <tls.all-off value="false"/>
        <tls.actuated.show-detectors value="false"/>
        <tls.actuated.jam-threshold value="-1"/>
    </processing>

    <routing>
        <device.rerouting.probability value="1"/>
        <device.rerouting.period value="300"/>
        <device.rerouting.adaptation-steps value="18"/>
        <device.rerouting.adaptation-interval value="10"/>
    </routing>

    <report>
        <verbose value="true"/>
        <no-warnings value="true"/>
        <duration-log.statistics value="true"/>
        <no-step-log value="true"/>
    </report>

    <traci_server>
        <remote-port value="58445"/>
    </traci_server>

    <gui_only>
        <gui-settings-file value="sumo_files/Berlin/osm.view.xml"/>
    </gui_only>

</sumoConfiguration>
-->

<tripinfos xmlns:xsi="http://www.w3.org/2001/XMLSchema-instance" xsi:noNamespaceSchemaLocation="http://sumo.dlr.de/xsd/tripinfo_file.xsd">
</tripinfos>
