<?xml version="1.0" encoding="UTF-8"?>

<!-- generated on 2025-10-05 13:41:01 by Eclipse SUMO sumo Version 1.24.0
<sumoConfiguration xmlns:xsi="http://www.w3.org/2001/XMLSchema-instance" xsi:noNamespaceSchemaLocation="http://sumo.dlr.de/xsd/sumoConfiguration.xsd">

    <input>
        <net-file value="C:\Projects\FDRL-Traffic\FDRL\sumo_files\Berlin\osm.net.xml.gz"/>
        <route-files value="C:\Projects\FDRL-Traffic\FDRL\sumo_files\Berlin\osm_pt.rou.xml,C:\Projects\FDRL-Traffic\FDRL\sumo_files\Berlin\osm.bus.trips.xml,C:\Projects\FDRL-Traffic\FDRL\sumo_files\Berlin\osm.motorcycle.trips.xml,C:\Projects\FDRL-Traffic\FDRL\sumo_files\Berlin\osm.passenger.trips.xml,C:\Projects\FDRL-Traffic\FDRL\sumo_files\Berlin\osm.truck.trips.xml"/>
        <additional-files value="C:\Projects\FDRL-Traffic\FDRL\sumo_files\Berlin\osm.poly.xml.gz,C:\Projects\FDRL-Traffic\FDRL\sumo_files\Berlin\osm_stops.add.xml,C:\Projects\FDRL-Traffic\FDRL\sumo_files\Berlin\output.add.xml"/>
    </input>

    <output>
        <tripinfo-output value="C:\Projects\FDRL-Traffic\FDRL\sumo_files\Berlin\tripinfos.xml"/>
        <stop-output value="C:\Projects\FDRL-Traffic\FDRL\sumo_files\Berlin\stopinfos.xml"/>
        <statistic-output value="C:\Projects\FDRL-Traffic\FDRL\sumo_files\Berlin\stats.xml"/>
    </output>

    <processing>
        <ignore-route-errors value="true"/>
        <tls.actuated.jam-threshold value="30"/>
    </processing>

    <routing>
        <device.rerouting.adaptation-steps value="18"/>
        <device.rerouting.adaptation-interval value="10"/>
    </routing>

    <report>
        <verbose value="true"/>
        <duration-log.statistics value="true"/>
        <no-step-log value="true"/>
   -->

<tripinfos xmlns:xsi="http://www.w3.org/2001/XMLSchema-instance" xsi:noNamespaceSchemaLocation="http://sumo.dlr.de/xsd/tripinfo_file.xsd">
</tripinfos>
-Traffic\FDRL\sumo_files\Berlin\osm.view.xml"/>
    </gui_only>

</sumoConfiguration>
-->

<tripinfos xmlns:xsi="http://www.w3.org/2001/XMLSchema-instance" xsi:noNamespaceSchemaLocation="http://sumo.dlr.de/xsd/tripinfo_file.xsd">
    <tripinfo id="motorcycle5" depart="24.00" departLane="1141076640#1_0" departPos="2.30" departSpeed="0.00" departDelay="0.18" arrival="53.00" arrivalLane="4606213_0" arrivalPos="12.97" arrivalSpeed="5.99" duration="29.00" routeLength="164.07" waitingTime="0.00" waitingCount="0" stopTime="0.00" timeLoss="5.01" rerouteNo="1" devices="tripinfo_motorcycle5 routing_motorcycle5" vType="motorcycle_motorcycle" speedFactor="0.86" vaporized="traci"/>
    <tripinfo id="veh5" depart="16.00" departLane="881921235#1_0" departPos="0.20" departSpeed="0.00" departDelay="0.12" arrival="53.00" arrivalLane=":6900258090_7_1" arrivalPos="8.07" arrivalSpeed="8.92" duration="37.00" routeLength="146.64" waitingTime="14.00" waitingCount="1" stopTime="0.00" timeLoss="20.87" rerouteNo="1" devices="tripinfo_veh5 routing_veh5" vType="veh_passenger" speedFactor="1.17" vaporized="traci"/>
    <tripinfo id="pt_bus_142:0.0" depart="52.00" departLane="4613112_0" departPos="5.79" departSpeed="0.00" departDelay="0.00" arrival="64.00" arrivalLane="232070355#0_0" arrivalPos="43.37" arrivalSpeed="9.76" duration="12.00" routeLength="58.61" waitingTime="0.00" waitingCount="0" stopTime="0.00" timeLoss="6.78" rerouteNo="0" devices="tripinfo_pt_bus_142:0.0" vType="pt_bus" speedFactor="1.00" vaporized="traci"/>
    <tripinfo id="motorcycle11" depart="53.00" departLane="1133992728_0" departPos="2.30" departSpeed="0.00" departDelay="0.59" arrival="65.00" arrivalLane=":10618437095_2_0" arrivalPos="3.03" arrivalSpeed="5.81" duration="12.00" routeLength="67.49" waitingTime="0.00" waitingCount="0" stopTime="0.00" timeLoss="2.26" rerouteNo="1" devices="tripinfo_motorcycle11 routing_motorcycle11" vType="motorcycle_motorcycle" speedFactor="0.93" vaporized="traci"/>
    <tripinfo id="veh23" depart="74.00" departLane="-184077630#10_0" departPos="5.10" departSpeed="0.00" departDelay="0.94" arrival="75.00" arrivalLane="-184077630#10_0" arrivalPos="5.10" arrivalSpeed="0.00" duration="1.00" routeLength="0.00" waitingTime="0.00" waitingCount="0" stopTime="0.00" timeLoss="0.00" rerouteNo="0" devices="tripinfo_veh23 routing_veh23" vType="veh_passenger" speedFactor="1.02" vaporized="traci"/>
    <tripinfo id="motorcycle2" depart="10.00" departLane="238682696#2_0" departPos="2.30" departSpeed="0.00" departDelay="0.47" arrival="79.00" arrivalLane="4610364#0_0" arrivalPos="60.67" arrivalSpeed="0.00" duration="69.00" routeLength="266.56" waitingTime="17.00" waitingCount="3" stopTime="0.00" timeLoss="36.86" rerouteNo="1" devices="tripinfo_motorcycle2 routing_motorcycle2" vType="motorcycle_motorcycle" speedFactor="1.05" vaporized="traci"/>
    <tripinfo id="truck4" depart="39.00" departLane="297373653#10_0" departPos="5.19" departSpeed="0.00" departDelay="0.88" arrival="79.00" arrivalLane=":3275541361_3_0" arrivalPos="5.14" arrivalSpeed="7.85" duration="40.00" routeLength="185.50" waitingTime="7.00" waitingCount="1" stopTime="0.00" timeLoss="16.83" rerouteNo="1" devices="tripinfo_truck4 routing_truck4" vType="truck_truck" speedFactor="1.00" vaporized="traci"/>
    <tripinfo id="veh22" depart="70.00" departLane="4610352#1_0" departPos="5.10" departSpeed="0.00" departDelay="0.12" arrival="79.00" arrivalLane="4610352#1_0" arrivalPos="24.29" arrivalSpeed="2.52" duration="9.00" routeLength="19.19" waitingTime="0.00" waitingCount="0" stopTime="0.00" timeLoss="1.36" rerouteNo="1" devices="tripinfo_veh22 routing_veh22" vType="veh_passenger" speedFactor="1.04" vaporized="traci"/>
    <tripinfo id="bus1" depart="20.00" departLane="297373653#10_0" departPos="5.19" departSpeed="0.00" departDelay="0.97" arrival="80.00" arrivalLane="740848375_0" arrivalPos="36.12" arrivalSpeed="0.28" duration="60.00" routeLength="328.18" waitingTime="6.00" waitingCount="2" stopTime="0.00" timeLoss="19.60" rerouteNo="1" devices="tripinfo_bus1 routing_bus1" vType="bus_bus" speedFactor="1.00" vaporized="traci"/>
    <tripinfo id="motorcycle13" depart="62.00" departLane="-1122497068_0" departPos="2.30" departSpeed="0.00" departDelay="0.06" arrival="80.00" arrivalLane="1158223859#2_0" arrivalPos="0.20" arrivalSpeed="6.28" duration="18.00" routeLength="124.52" waitingTime="0.00" waitingCount="0" stopTime="0.00" timeLoss="4.86" rerouteNo="1" devices="tripinfo_motorcycle13 routing_motorcycle13" vType="motorcycle_motorcycle" speedFactor="0.94" vaporized="traci"/>
    <tripinfo id="motorcycle9" depart="43.00" departLane="1133992729#4_0" departPos="0.20" departSpeed="0.00" departDelay="0.12" arrival="95.00" arrivalLane="1133992722_0" arrivalPos="0.20" arrivalSpeed="6.16" duration="52.00" routeLength="403.20" waitingTime="0.00" waitingCount="0" stopTime="0.00" timeLoss="8.77" rerouteNo="1" devices="tripinfo_motorcycle9 routing_motorcycle9" vType="motorcycle_motorcycle" speedFactor="1.12" vaporized=""/>
    <tripinfo id="pt_bus_200:1.0" depart="17.00" departLane="112128418#0_0" departPos="12.10" departSpeed="0.00" departDelay="0.00" arrival="97.00" arrivalLane="295445243_0" arrivalPos="70.56" arrivalSpeed="13.72" duration="80.00" routeLength="379.18" waitingTime="0.00" waitingCount="0" stopTime="30.00" timeLoss="20.70" rerouteNo="0" devices="tripinfo_pt_bus_200:1.0" vType="pt_bus" speedFactor="1.00" vaporized=""/>
    <tripinfo id="pt_bus_200:0.0" depart="15.00" departLane="4613112_0" departPos="5.79" departSpeed="0.00" departDelay="0.00" arrival="100.00" arrivalLane="24914141#1_0" arrivalPos="134.20" arrivalSpeed="13.37" duration="85.00" routeLength="416.18" waitingTime="1.00" waitingCount="1" stopTime="31.00" timeLoss="22.89" rerouteNo="0" devices="tripinfo_pt_bus_200:0.0" vType="pt_bus" speedFactor="1.00" vaporized=""/>
    <tripinfo id="veh3" depart="10.00" departLane="-1397609462_0" departPos="5.10" departSpeed="7.08" departDelay="0.47" arrival="111.00" arrivalLane="-1024034687#2_0" arrivalPos="0.41" arrivalSpeed="7.07" duration="101.00" routeLength="627.55" waitingTime="0.00" waitingCount="0" stopTime="0.00" timeLoss="11.07" rerouteNo="1" devices="tripinfo_veh3 routing_veh3" vType="veh_passenger" speedFactor="0.85" vaporized=""/>
    <tripinfo id="veh41" depart="131.00" departLane="-1139102398#1_0" departPos="5.10" departSpeed="0.00" departDelay="0.77" arrival="132.00" arrivalLane="-1139102398#1_0" arrivalPos="5.10" arrivalSpeed="0.00" duration="1.00" routeLength="0.00" waitingTime="0.00" waitingCount="0" stopTime="0.00" timeLoss="0.00" rerouteNo="0" devices="tripinfo_veh41 routing_veh41" vType="veh_passenger" speedFactor="1.04" vaporized="traci"/>
    <tripinfo id="pt_bus_142:1.0" depart="133.00" departLane="73310501#0_0" departPos="12.10" departSpeed="0.00" departDelay="0.00" arrival="134.00" arrivalLane="73310501#0_0" arrivalPos="12.10" arrivalSpeed="0.00" duration="1.00" routeLength="0.00" waitingTime="0.00" waitingCount="0" stopTime="0.00" timeLoss="0.00" rerouteNo="0" devices="tripinfo_pt_bus_142:1.0" vType="pt_bus" speedFactor="1.00" vaporized="traci"/>
    <tripinfo id="veh7" depart="23.00" departLane="268002748#0_0" departPos="0.20" departSpeed="0.00" departDelay="0.77" arrival="137.00" arrivalLane="-717177007#0_0" arrivalPos="11.16" arrivalSpeed="8.36" duration="114.00" routeLength="764.90" waitingTime="15.00" waitingCount="2" stopTime="0.00" timeLoss="29.95" rerouteNo="1" devices="tripinfo_veh7 routing_veh7" vType="veh_passenger" speedFactor="1.10" vaporized=""/>
    <tripinfo id="truck1" depart="10.00" departLane="-1133992729#1_0" departPos="7.20" departSpeed="0.00" departDelay="0.47" arrival="143.00" arrivalLane="-1024034687#2_0" arrivalPos="0.41" arrivalSpeed="7.36" duration="133.00" routeLength="978.79" waitingTime="2.00" waitingCount="1" stopTime="0.00" timeLoss="21.32" rerouteNo="1" devices="tripinfo_truck1 routing_truck1" vType="truck_truck" speedFactor="0.92" vaporized=""/>
    <tripinfo id="veh10" depart="32.00" departLane="184429424#7_0" departPos="4.89" departSpeed="0.00" departDelay="0.24" arrival="149.00" arrivalLane="8149654#1_0" arrivalPos="7.28" arrivalSpeed="7.47" duration="117.00" routeLength="826.56" waitingTime="0.00" waitingCount="0" stopTime="0.00" timeLoss="13.12" rerouteNo="1" devices="tripinfo_veh10 routing_veh10" vType="veh_passenger" speedFactor="0.90" vaporized=""/>
    <tripinfo id="bus0" depart="0.00" departLane="-373389574#4_0" departPos="9.43" departSpeed="0.00" departDelay="0.00" arrival="151.00" arrivalLane="-24684997#0_0" arrivalPos="28.96" arrivalSpeed="8.31" duration="151.00" routeLength="1169.04" waitingTime="0.00" waitingCount="0" stopTime="0.00" timeLoss="18.51" rerouteNo="1" devices="tripinfo_bus0 routing_bus0" vType="bus_bus" speedFactor="1.00" vaporized=""/>
    <tripinfo id="motorcycle0" depart="0.00" departLane="-1052758758#0_0" departPos="2.30" departSpeed="0.00" departDelay="0.00" arrival="155.00" arrivalLane="267542609#1_0" arrivalPos="5.45" arrivalSpeed="6.96" duration="155.00" routeLength="1090.15" waitingTime="0.00" waitingCount="0" stopTime="0.00" timeLoss="30.15" rerouteNo="1" devices="tripinfo_motorcycle0 routing_motorcycle0" vType="motorcycle_motorcycle" speedFactor="1.06" vaporized=""/>
    <tripinfo id="veh4" depart="13.00" departLane="-182690326#8_0" departPos="5.10" departSpeed="0.00" departDelay="0.29" arrival="155.00" arrivalLane="1151940479_0" arrivalPos="21.59" arrivalSpeed="5.94" duration="142.00" routeLength="970.22" waitingTime="0.00" waitingCount="0" stopTime="0.00" timeLoss="15.81" rerouteNo="1" devices="tripinfo_veh4 routing_veh4" vType="veh_passenger" speedFactor="0.85" vaporized=""/>
    <tripinfo id="truck3" depart="29.00" departLane="-4613299#2_0" departPos="7.20" departSpeed="0.00" departDelay="0.41" arrival="156.00" arrivalLane="31145647#2_1" arrivalPos="128.72" arrivalSpeed="14.32" duration="127.00" routeLength="1239.49" waitingTime="1.00" waitingCount="1" stopTime="0.00" timeLoss="22.74" rerouteNo="1" devices="tripinfo_truck3 routing_truck3" vType="truck_truck" speedFactor="1.05" vaporized=""/>
    <tripinfo id="motorcycle23" depart="110.00" departLane="-184430983#3_0" departPos="2.12" departSpeed="7.90" departDelay="0.41" arrival="159.00" arrivalLane="147657122#3_0" arrivalPos="10.95" arrivalSpeed="7.21" duration="49.00" routeLength="313.94" waitingTime="0.00" waitingCount="0" stopTime="0.00" timeLoss="9.07" rerouteNo="1" devices="tripinfo_motorcycle23 routing_motorcycle23" vType="motorcycle_motorcycle" speedFactor="0.95" vaporized=""/>
    <tripinfo id="truck0" depart="0.00" departLane="-1139102398#1_0" departPos="6.38" departSpeed="0.00" departDelay="0.00" arrival="160.00" arrivalLane="-4613293#0_0" arrivalPos="89.11" arrivalSpeed="8.05" duration="160.00" routeLength="1178.23" waitingTime="15.00" waitingCount="1" stopTime="0.00" timeLoss="35.09" rerouteNo="1" devices="tripinfo_truck0 routing_truck0" vType="truck_truck" speedFactor="1.02" vaporized=""/>
    <tripinfo id="veh17" depart="54.00" departLane="24684997#1_0" departPos="5.10" departSpeed="0.00" departDelay="0.00" arrival="162.00" arrivalLane="-717177007#14_0" arrivalPos="23.01" arrivalSpeed="7.66" duration="108.00" routeLength="815.44" waitingTime="0.00" waitingCount="0" stopTime="0.00" timeLoss="13.68" rerouteNo="1" devices="tripinfo_veh17 routing_veh17" vType="veh_passenger" speedFactor="0.99" vaporized=""/>
    <tripinfo id="veh51" depart="162.00" departLane="-41926994_0" departPos="5.10" departSpeed="0.00" departDelay="0.00" arrival="163.00" arrivalLane="-41926994_0" arrivalPos="5.10" arrivalSpeed="0.00" duration="1.00" routeLength="0.00" waitingTime="0.00" waitingCount="0" stopTime="0.00" timeLoss="0.00" rerouteNo="0" devices="tripinfo_veh51 routing_veh51" vType="veh_passenger" speedFactor="0.91" vaporized="traci"/>
    <tripinfo id="motorcycle1" depart="5.00" departLane="-147657122#4_0" departPos="2.30" departSpeed="0.00" departDelay="0.24" arrival="166.00" arrivalLane="1098856683#3_0" arrivalPos="31.95" arrivalSpeed="5.31" duration="161.00" routeLength="1050.18" waitingTime="0.00" waitingCount="0" stopTime="0.00" timeLoss="30.41" rerouteNo="1" devices="tripinfo_motorcycle1 routing_motorcycle1" vType="motorcycle_motorcycle" speedFactor="0.94" vaporized=""/>
    <tripinfo id="veh16" depart="51.00" departLane="309300321_4" departPos="5.10" departSpeed="0.00" departDelay="0.18" arrival="172.00" arrivalLane="312651884#2_0" arrivalPos="112.81" arrivalSpeed="8.16" duration="121.00" routeLength="885.59" waitingTime="3.00" waitingCount="1" stopTime="0.00" timeLoss="18.50" rerouteNo="1" devices="tripinfo_veh16 routing_veh16" vType="veh_passenger" speedFactor="1.02" vaporized=""/>
    <tripinfo id="motorcycle12" depart="58.00" departLane="-8149654#8_0" departPos="2.30" departSpeed="0.00" departDelay="0.82" arrival="173.00" arrivalLane="-1095407474#2_0" arrivalPos="34.88" arrivalSpeed="6.46" duration="115.00" routeLength="829.62" waitingTime="6.00" waitingCount="1" stopTime="0.00" timeLoss="27.97" rerouteNo="1" devices="tripinfo_motorcycle12 routing_motorcycle12" vType="motorcycle_motorcycle" speedFactor="0.88" vaporized=""/>
    <tripinfo id="motorcycle8" depart="39.00" departLane="-8149654#7_0" departPos="2.30" departSpeed="0.00" departDelay="0.88" arrival="175.00" arrivalLane="-1140689523#2_0" arrivalPos="0.20" arrivalSpeed="8.01" duration="136.00" routeLength="985.04" waitingTime="3.00" waitingCount="1" stopTime="0.00" timeLoss="28.98" rerouteNo="1" devices="tripinfo_motorcycle8 routing_motorcycle8" vType="motorcycle_motorcycle" speedFactor="1.05" vaporized=""/>
    <tripinfo id="veh12" depart="39.00" departLane="1133761609#0_0" departPos="5.10" departSpeed="0.00" departDelay="0.88" arrival="180.00" arrivalLane="598692947#1_0" arrivalPos="12.93" arrivalSpeed="13.44" duration="141.00" routeLength="1007.19" waitingTime="6.00" waitingCount="2" stopTime="0.00" timeLoss="31.75" rerouteNo="1" devices="tripinfo_veh12 routing_veh12" vType="veh_passenger" speedFactor="1.02" vaporized=""/>
    <tripinfo id="veh0" depart="0.00" departLane="1098856714#3_0" departPos="5.10" departSpeed="0.00" departDelay="0.00" arrival="186.00" arrivalLane="1373064823#0_0" arrivalPos="116.13" arrivalSpeed="12.95" duration="186.00" routeLength="1538.30" waitingTime="4.00" waitingCount="2" stopTime="0.00" timeLoss="29.32" rerouteNo="1" devices="tripinfo_veh0 routing_veh0" vType="veh_passenger" speedFactor="1.01" vaporized=""/>
    <tripinfo id="veh6" depart="20.00" departLane="1052675176#5_0" departPos="5.10" departSpeed="0.00" departDelay="0.94" arrival="186.00" arrivalLane="1095165529_0" arrivalPos="0.20" arrivalSpeed="7.20" duration="166.00" routeLength="1229.99" waitingTime="5.00" waitingCount="1" stopTime="0.00" timeLoss="29.84" rerouteNo="1" devices="tripinfo_veh6 routing_veh6" vType="veh_passenger" speedFactor="1.02" vaporized=""/>
    <tripinfo id="motorcycle4" depart="20.00" departLane="-1052675176#3_0" departPos="2.30" departSpeed="0.00" departDelay="0.94" arrival="188.00" arrivalLane="1052675227#3_0" arrivalPos="7.58" arrivalSpeed="5.88" duration="168.00" routeLength="1022.04" waitingTime="9.00" waitingCount="1" stopTime="0.00" timeLoss="43.46" rerouteNo="1" devices="tripinfo_motorcycle4 routing_motorcycle4" vType="motorcycle_motorcycle" speedFactor="0.94" vaporized=""/>
    <tripinfo id="veh14" depart="45.00" departLane="25558788#0_1" departPos="5.10" departSpeed="15.04" departDelay="0.53" arrival="188.00" arrivalLane="4296469#2_0" arrivalPos="15.62" arrivalSpeed="8.97" duration="143.00" routeLength="1361.76" waitingTime="6.00" waitingCount="2" stopTime="0.00" timeLoss="26.89" rerouteNo="1" devices="tripinfo_veh14 routing_veh14" vType="veh_passenger" speedFactor="1.08" vaporized=""/>
    <tripinfo id="veh9" depart="29.00" departLane="73310497#0_0" departPos="5.10" departSpeed="0.00" departDelay="0.41" arrival="190.00" arrivalLane="-11483256_0" arrivalPos="52.51" arrivalSpeed="7.32" duration="161.00" routeLength="867.74" waitingTime="34.00" waitingCount="2" stopTime="0.00" timeLoss="55.11" rerouteNo="1" devices="tripinfo_veh9 routing_veh9" vType="veh_passenger" speedFactor="1.00" vaporized=""/>
    <tripinfo id="truck2" depart="20.00" departLane="-4296469#1_0" departPos="7.20" departSpeed="0.00" departDelay="0.94" arrival="192.00" arrivalLane="-1141076639_0" arrivalPos="8.42" arrivalSpeed="7.23" duration="172.00" routeLength="1180.92" waitingTime="7.00" waitingCount="2" stopTime="0.00" timeLoss="34.28" rerouteNo="1" devices="tripinfo_truck2 routing_truck2" vType="truck_truck" speedFactor="0.93" vaporized=""/>
    <tripinfo id="veh13" depart="42.00" departLane="-390614076#2_0" departPos="5.10" departSpeed="0.00" departDelay="0.71" arrival="199.00" arrivalLane="-1100646993_0" arrivalPos="146.40" arrivalSpeed="2.18" duration="157.00" routeLength="951.34" waitingTime="3.00" waitingCount="1" stopTime="0.00" timeLoss="35.06" rerouteNo="1" devices="tripinfo_veh13 routing_veh13" vType="veh_passenger" speedFactor="0.97" vaporized=""/>
    <tripinfo id="veh33" depart="105.00" departLane="-4613293#1_0" departPos="5.10" departSpeed="0.00" departDelay="0.18" arrival="200.00" arrivalLane="268002748#2_0" arrivalPos="9.32" arrivalSpeed="8.47" duration="95.00" routeLength="729.57" waitingTime="0.00" waitingCount="0" stopTime="0.00" timeLoss="12.32" rerouteNo="1" devices="tripinfo_veh33 routing_veh33" vType="veh_passenger" speedFactor="1.09" vaporized=""/>
    <tripinfo id="bus2" depart="39.00" departLane="4613299#0_0" departPos="12.10" departSpeed="0.00" departDelay="0.93" arrival="202.00" arrivalLane="-1122497068_0" arrivalPos="48.28" arrivalSpeed="12.05" duration="163.00" routeLength="1184.29" waitingTime="0.00" waitingCount="0" stopTime="0.00" timeLoss="20.60" rerouteNo="1" devices="tripinfo_bus2 routing_bus2" vType="bus_bus" speedFactor="1.00" vaporized=""/>
    <tripinfo id="motorcycle6" depart="29.00" departLane="1052757284#0_0" departPos="2.30" departSpeed="0.00" departDelay="0.41" arrival="220.00" arrivalLane="-184077630#12_0" arrivalPos="9.50" arrivalSpeed="8.18" duration="191.00" routeLength="1502.80" waitingTime="0.00" waitingCount="0" stopTime="0.00" timeLoss="34.77" rerouteNo="1" devices="tripinfo_motorcycle6 routing_motorcycle6" vType="motorcycle_motorcycle" speedFactor="1.09" vaporized=""/>
    <tripinfo id="motorcycle24" depart="115.00" departLane="8149654#2_0" departPos="0.20" departSpeed="0.00" departDelay="0.65" arrival="222.00" arrivalLane="1151940481#0_0" arrivalPos="14.34" arrivalSpeed="7.43" duration="107.00" routeLength="775.38" waitingTime="1.00" waitingCount="1" stopTime="0.00" timeLoss="24.12" rerouteNo="1" devices="tripinfo_motorcycle24 routing_motorcycle24" vType="motorcycle_motorcycle" speedFactor="1.13" vaporized=""/>
    <tripinfo id="veh15" depart="48.00" departLane="1101405300_0" departPos="2.32" departSpeed="6.22" departDelay="0.35" arrival="223.00" arrivalLane="-1052757284#1_0" arrivalPos="32.81" arrivalSpeed="8.08" duration="175.00" routeLength="1069.12" waitingTime="14.00" waitingCount="1" stopTime="0.00" timeLoss="45.22" rerouteNo="1" devices="tripinfo_veh15 routing_veh15" vType="veh_passenger" speedFactor="1.12" vaporized=""/>
    <tripinfo id="motorcycle29" depart="139.00" departLane="-1140689523#0_0" departPos="2.30" departSpeed="0.00" departDelay="0.83" arrival="225.00" arrivalLane="-1316026644_0" arrivalPos="50.12" arrivalSpeed="9.15" duration="86.00" routeLength="561.92" waitingTime="13.00" waitingCount="2" stopTime="0.00" timeLoss="36.05" rerouteNo="1" devices="tripinfo_motorcycle29 routing_motorcycle29" vType="motorcycle_motorcycle" speedFactor="1.17" vaporized=""/>
    <tripinfo id="veh19" depart="61.00" departLane="-34580834#8_0" departPos="5.10" departSpeed="0.00" departDelay="0.65" arrival="227.00" arrivalLane="1121505024#0_1" arrivalPos="54.03" arrivalSpeed="11.98" duration="166.00" routeLength="1080.09" waitingTime="10.00" waitingCount="2" stopTime="0.00" timeLoss="32.90" rerouteNo="1" devices="tripinfo_veh19 routing_veh19" vType="veh_passenger" speedFactor="0.88" vaporized=""/>
    <tripinfo id="veh45" depart="143.00" departLane="34580834#13_0" departPos="5.10" departSpeed="0.00" departDelay="0.06" arrival="229.00" arrivalLane="-4606218#0_0" arrivalPos="1.67" arrivalSpeed="6.66" duration="86.00" routeLength="505.71" waitingTime="3.00" waitingCount="1" stopTime="0.00" timeLoss="16.55" rerouteNo="1" devices="tripinfo_veh45 routing_veh45" vType="veh_passenger" speedFactor="0.89" vaporized=""/>
    <tripinfo id="veh8" depart="26.00" departLane="184077630#12_0" departPos="5.10" departSpeed="0.00" departDelay="0.59" arrival="231.00" arrivalLane="-1152640372#5_0" arrivalPos="28.31" arrivalSpeed="2.69" duration="205.00" routeLength="1461.66" waitingTime="3.00" waitingCount="1" stopTime="0.00" timeLoss="37.89" rerouteNo="1" devices="tripinfo_veh8 routing_veh8" vType="veh_passenger" speedFactor="1.00" vaporized=""/>
    <tripinfo id="motorcycle15" depart="72.00" departLane="4613300#5_0" departPos="2.30" departSpeed="0.00" departDelay="0.53" arrival="232.00" arrivalLane="1138696720#0_0" arrivalPos="10.57" arrivalSpeed="8.04" duration="160.00" routeLength="1188.32" waitingTime="19.00" waitingCount="2" stopTime="0.00" timeLoss="49.61" rerouteNo="1" devices="tripinfo_motorcycle15 routing_motorcycle15" vType="motorcycle_motorcycle" speedFactor="1.16" vaporized=""/>
    <tripinfo id="motorcycle33" depart="158.00" departLane="1095165548#0_0" departPos="2.30" departSpeed="0.00" departDelay="0.77" arrival="232.00" arrivalLane="-1052756578#1_0" arrivalPos="32.17" arrivalSpeed="9.57" duration="74.00" routeLength="773.63" waitingTime="0.00" waitingCount="0" stopTime="0.00" timeLoss="10.76" rerouteNo="1" devices="tripinfo_motorcycle33 routing_motorcycle33" vType="motorcycle_motorcycle" speedFactor="1.18" vaporized=""/>
    <tripinfo id="veh43" depart="137.00" departLane="-1139102398#3_0" departPos="5.10" departSpeed="0.00" departDelay="0.42" arrival="232.00" arrivalLane="1104460750_1" arrivalPos="21.45" arrivalSpeed="13.35" duration="95.00" routeLength="830.22" waitingTime="0.00" waitingCount="0" stopTime="0.00" timeLoss="11.50" rerouteNo="1" devices="tripinfo_veh43 routing_veh43" vType="veh_passenger" speedFactor="1.02" vaporized=""/>
    <tripinfo id="veh11" depart="35.00" departLane="-1095165529_0" departPos="0.20" departSpeed="0.00" departDelay="0.06" arrival="233.00" arrivalLane="1052675176#5_0" arrivalPos="17.27" arrivalSpeed="8.65" duration="198.00" routeLength="1661.83" waitingTime="4.00" waitingCount="1" stopTime="0.00" timeLoss="36.80" rerouteNo="1" devices="tripinfo_veh11 routing_veh11" vType="veh_passenger" speedFactor="1.14" vaporized=""/>
    <tripinfo id="veh24" depart="77.00" departLane="980542375_0" departPos="5.10" departSpeed="0.00" departDelay="0.77" arrival="233.00" arrivalLane="-881921235#1_0" arrivalPos="0.20" arrivalSpeed="7.54" duration="156.00" routeLength="1167.33" waitingTime="0.00" waitingCount="0" stopTime="0.00" timeLoss="17.13" rerouteNo="1" devices="tripinfo_veh24 routing_veh24" vType="veh_passenger" speedFactor="1.02" vaporized=""/>
    <tripinfo id="veh2" depart="7.00" departLane="-34580834#13_0" departPos="5.10" departSpeed="0.00" departDelay="0.65" arrival="240.00" arrivalLane="-1052734946_0" arrivalPos="23.26" arrivalSpeed="6.63" duration="233.00" routeLength="1581.14" waitingTime="0.00" waitingCount="0" stopTime="0.00" timeLoss="23.98" rerouteNo="1" devices="tripinfo_veh2 routing_veh2" vType="veh_passenger" speedFactor="0.88" vaporized=""/>
    <tripinfo id="truck6" depart="58.00" departLane="-1133992729#3_0" departPos="5.36" departSpeed="0.00" departDelay="0.82" arrival="245.00" arrivalLane="-881921235#0_0" arrivalPos="5.87" arrivalSpeed="7.56" duration="187.00" routeLength="1339.27" waitingTime="15.00" waitingCount="2" stopTime="0.00" timeLoss="44.04" rerouteNo="1" devices="tripinfo_truck6 routing_truck6" vType="truck_truck" speedFactor="0.96" vaporized=""/>
    <tripinfo id="veh47" depart="150.00" departLane="-373389574#0_0" departPos="5.10" departSpeed="0.00" departDelay="0.71" arrival="252.00" arrivalLane="295445243_0" arrivalPos="70.56" arrivalSpeed="12.14" duration="102.00" routeLength="840.98" waitingTime="1.00" waitingCount="1" stopTime="0.00" timeLoss="15.78" rerouteNo="1" devices="tripinfo_veh47 routing_veh47" vType="veh_passenger" speedFactor="0.92" vaporized=""/>
    <tripinfo id="motorcycle16" depart="77.00" departLane="-1157111072_0" departPos="2.30" departSpeed="8.48" departDelay="0.77" arrival="253.00" arrivalLane="4610356_0" arrivalPos="38.91" arrivalSpeed="6.28" duration="176.00" routeLength="1152.44" waitingTime="5.00" waitingCount="1" stopTime="0.00" timeLoss="38.74" rerouteNo="1" devices="tripinfo_motorcycle16 routing_motorcycle16" vType="motorcycle_motorcycle" speedFactor="1.02" vaporized=""/>
    <tripinfo id="motorcycle30" depart="143.00" departLane="-1140760605#1_1" departPos="2.30" departSpeed="0.00" departDelay="0.06" arrival="254.00" arrivalLane="23294727#0_0" arrivalPos="1.09" arrivalSpeed="5.48" duration="111.00" routeLength="926.33" waitingTime="1.00" waitingCount="1" stopTime="0.00" timeLoss="21.36" rerouteNo="1" devices="tripinfo_motorcycle30 routing_motorcycle30" vType="motorcycle_motorcycle" speedFactor="0.99" vaporized=""/>
    <tripinfo id="motorcycle3" depart="15.00" departLane="1098856696_0" departPos="2.30" departSpeed="0.00" departDelay="0.71" arrival="255.00" arrivalLane="1133992724#0_0" arrivalPos="40.11" arrivalSpeed="5.63" duration="240.00" routeLength="1370.57" waitingTime="23.00" waitingCount="2" stopTime="0.00" timeLoss="74.38" rerouteNo="1" devices="tripinfo_motorcycle3 routing_motorcycle3" vType="motorcycle_motorcycle" speedFactor="0.89" vaporized=""/>
    <tripinfo id="veh39" depart="124.00" departLane="-4790879#1_0" departPos="5.10" departSpeed="0.00" departDelay="0.12" arrival="257.00" arrivalLane="1094434971_0" arrivalPos="37.44" arrivalSpeed="12.71" duration="133.00" routeLength="849.32" waitingTime="6.00" waitingCount="2" stopTime="0.00" timeLoss="30.06" rerouteNo="1" devices="tripinfo_veh39 routing_veh39" vType="veh_passenger" speedFactor="0.98" vaporized=""/>
    <tripinfo id="truck5" depart="48.00" departLane="4606258#1_0" departPos="3.42" departSpeed="0.00" departDelay="0.35" arrival="257.00" arrivalLane="268002743#0_0" arrivalPos="12.16" arrivalSpeed="6.69" duration="209.00" routeLength="1536.55" waitingTime="19.00" waitingCount="1" stopTime="0.00" timeLoss="46.49" rerouteNo="1" devices="tripinfo_truck5 routing_truck5" vType="truck_truck" speedFactor="1.05" vaporized=""/>
    <tripinfo id="veh32" depart="102.00" departLane="-4613287_0" departPos="0.20" departSpeed="0.00" departDelay="0.36" arrival="259.00" arrivalLane="-1024034687#0_0" arrivalPos="0.18" arrivalSpeed="8.02" duration="157.00" routeLength="1086.32" waitingTime="7.00" waitingCount="1" stopTime="0.00" timeLoss="26.19" rerouteNo="1" devices="tripinfo_veh32 routing_veh32" vType="veh_passenger" speedFactor="1.01" vaporized=""/>
    <tripinfo id="truck9" depart="86.00" departLane="-1140771916#1_0" departPos="7.20" departSpeed="8.29" departDelay="0.24" arrival="262.00" arrivalLane="-1133992729#0_0" arrivalPos="13.66" arrivalSpeed="7.69" duration="176.00" routeLength="1185.22" waitingTime="13.00" waitingCount="2" stopTime="0.00" timeLoss="39.35" rerouteNo="1" devices="tripinfo_truck9 routing_truck9" vType="truck_truck" speedFactor="1.00" vaporized=""/>
    <tripinfo id="motorcycle17" depart="81.00" departLane="1344278031#1_1" departPos="2.30" departSpeed="0.00" departDelay="0.00" arrival="264.00" arrivalLane="717177006#2_0" arrivalPos="5.19" arrivalSpeed="7.36" duration="183.00" routeLength="1083.90" waitingTime="28.00" waitingCount="2" stopTime="0.00" timeLoss="62.14" rerouteNo="1" devices="tripinfo_motorcycle17 routing_motorcycle17" vType="motorcycle_motorcycle" speedFactor="1.01" vaporized=""/>