<?xml version="1.0" encoding="UTF-8"?>

<!-- generated on 2025-09-21 13:29:20 by Eclipse SUMO GUI Version 1.24.0
<sumoConfiguration xmlns:xsi="http://www.w3.org/2001/XMLSchema-instance" xsi:noNamespaceSchemaLocation="http://sumo.dlr.de/xsd/sumoConfiguration.xsd">

    <input>
        <net-file value="/home/vishwajit/Workspace/SIH2025/FDRL/sumo_files/2025-09-21-13-29-13/osm.net.xml.gz"/>
        <route-files value="/home/vishwajit/Workspace/SIH2025/FDRL/sumo_files/2025-09-21-13-29-13/osm_pt.rou.xml,/home/vishwajit/Workspace/SIH2025/FDRL/sumo_files/2025-09-21-13-29-13/osm.bus.trips.xml,/home/vishwajit/Workspace/SIH2025/FDRL/sumo_files/2025-09-21-13-29-13/osm.motorcycle.trips.xml,/home/vishwajit/Workspace/SIH2025/FDRL/sumo_files/2025-09-21-13-29-13/osm.passenger.trips.xml,/home/vishwajit/Workspace/SIH2025/FDRL/sumo_files/2025-09-21-13-29-13/osm.truck.trips.xml"/>
        <additional-files value="/home/vishwajit/Workspace/SIH2025/FDRL/sumo_files/2025-09-21-13-29-13/osm.poly.xml.gz,/home/vishwajit/Workspace/SIH2025/FDRL/sumo_files/2025-09-21-13-29-13/osm_stops.add.xml,/home/vishwajit/Workspace/SIH2025/FDRL/sumo_files/2025-09-21-13-29-13/output.add.xml"/>
    </input>

    <output>
        <tripinfo-output value="/home/vishwajit/Workspace/SIH2025/FDRL/sumo_files/2025-09-21-13-29-13/tripinfos.xml"/>
        <stop-output value="/home/vishwajit/Workspace/SIH2025/FDRL/sumo_files/2025-09-21-13-29-13/stopinfos.xml"/>
        <statistic-output value="/home/vishwajit/Workspace/SIH2025/FDRL/sumo_files/2025-09-21-13-29-13/stats.xml"/>
    </output>

    <processing>
        <ignore-route-errors value="true"/>
        <tls.actuated.jam-threshold value="30"/>
    </processing>

    <routing>
        <device.rerouting.adaptation-steps value="18"/>
        <device.rerouting.adaptation-interval value="10"/>
    </routing>

    <report>
        <verbose value="true"/>
        <duration-log.statistics value="true"/>
        <no-step-log value="true"/>
    </report>

    <gui_only>
        <gui-settings-file value="/home/vishwajit/Workspace/SIH2025/FDRL/sumo_files/2025-09-21-13-29-13/osm.view.xml"/>
    </gui_only>

</sumoConfiguration>
-->

<meandata xmlns:xsi="http://www.w3.org/2001/XMLSchema-instance" xsi:noNamespaceSchemaLocation="http://sumo.dlr.de/xsd/meandata_file.xsd">
    <interval begin="0.00" end="3600.00" id="wizard_example">
        <edge id="-1091258062" sampledSeconds="12.26" traveltime="6.04" overlapTraveltime="6.44" density="0.05" laneDensity="0.05" occupancy="0.02" waitingTime="0.00" timeLoss="2.69" speed="11.86" speedRelative="0.85" departed="2" arrived="0" entered="0" left="2" laneChangedFrom="0" laneChangedTo="0"/>
        <edge id="-1091258063" sampledSeconds="24.49" traveltime="6.09" overlapTraveltime="6.35" density="0.09" laneDensity="0.09" occupancy="0.02" waitingTime="0.00" timeLoss="2.17" speed="12.89" speedRelative="0.93" departed="4" arrived="0" entered="0" left="4" laneChangedFrom="0" laneChangedTo="0"/>
        <edge id="-1104594356" sampledSeconds="0.00" departed="0" arrived="0" entered="0" left="0" laneChangedFrom="0" laneChangedTo="0"/>
        <edge id="-1107662879" sampledSeconds="11475.58" traveltime="187.47" overlapTraveltime="197.43" density="78.84" laneDensity="78.84" occupancy="46.75" waitingTime="10104.00" timeLoss="10574.66" speed="0.24" speedRelative="0.08" departed="9" arrived="6" entered="65" left="63" laneChangedFrom="0" laneChangedTo="0" teleported="5"/>
        <edge id="-1120729741" sampledSeconds="0.00" departed="0" arrived="0" entered="0" left="0" laneChangedFrom="0" laneChangedTo="0"/>
        <edge id="-1121147900#0" sampledSeconds="0.00" departed="0" arrived="0" entered="0" left="0" laneChangedFrom="0" laneChangedTo="0"/>
        <edge id="-1121147900#1" sampledSeconds="0.00" departed="0" arrived="0" entered="0" left="0" laneChangedFrom="0" laneChangedTo="0"/>
        <edge id="-1121147901" sampledSeconds="0.00" departed="0" arrived="0" entered="0" left="0" laneChangedFrom="0" laneChangedTo="0"/>
        <edge id="-1121687688" sampledSeconds="9406.89" traveltime="140.57" overlapTraveltime="141.46" density="19.96" laneDensity="19.96" occupancy="9.31" waitingTime="8366.00" timeLoss="8737.75" speed="0.96" speedRelative="0.07" departed="6" arrived="4" entered="66" left="54" laneChangedFrom="0" laneChangedTo="0"/>
        <edge id="-1122104213" sampledSeconds="80.80" traveltime="12.68" overlapTraveltime="15.65" density="0.38" laneDensity="0.38" occupancy="0.42" waitingTime="2.00" timeLoss="16.01" speed="4.49" speedRelative="0.81" departed="2" arrived="4" entered="4" left="2" laneChangedFrom="0" laneChangedTo="0"/>
        <edge id="-1124140020" sampledSeconds="0.00" departed="0" arrived="0" entered="0" left="0" laneChangedFrom="0" laneChangedTo="0"/>
        <edge id="-1126732421" sampledSeconds="0.00" departed="0" arrived="0" entered="0" left="0" laneChangedFrom="0" laneChangedTo="0"/>
        <edge id="-1126732422" sampledSeconds="0.00" departed="0" arrived="0" entered="0" left="0" laneChangedFrom="0" laneChangedTo="0"/>
        <edge id="-1126732432#0" sampledSeconds="0.00" departed="0" arrived="0" entered="0" left="0" laneChangedFrom="0" laneChangedTo="0"/>
        <edge id="-1126732432#1" sampledSeconds="0.00" departed="0" arrived="0" entered="0" left="0" laneChangedFrom="0" laneChangedTo="0"/>
        <edge id="-1126732432#2" sampledSeconds="0.00" departed="0" arrived="0" entered="0" left="0" laneChangedFrom="0" laneChangedTo="0"/>
        <edge id="-1126732432#3" sampledSeconds="0.00" departed="0" arrived="0" entered="0" left="0" laneChangedFrom="0" laneChangedTo="0"/>
        <edge id="-1126750040" sampledSeconds="0.00" departed="0" arrived="0" entered="0" left="0" laneChangedFrom="0" laneChangedTo="0"/>
        <edge id="-1126750041#0" sampledSeconds="104.48" traveltime="0.04" overlapTraveltime="1.96" density="212.77" laneDensity="212.77" occupancy="2.84" waitingTime="0.00" timeLoss="76.76" speed="3.29" speedRelative="1.18" departed="6" arrived="6" entered="67" left="67" laneChangedFrom="0" laneChangedTo="0"/>
        <edge id="-1126750041#1" sampledSeconds="2407.92" traveltime="35.08" overlapTraveltime="37.18" density="8.90" laneDensity="8.90" occupancy="4.00" waitingTime="3.00" timeLoss="566.43" speed="2.15" speedRelative="0.77" departed="39" arrived="0" entered="28" left="67" laneChangedFrom="0" laneChangedTo="0"/>
        <edge id="-1126750042" sampledSeconds="502.17" traveltime="7.63" overlapTraveltime="9.58" density="1.82" laneDensity="1.82" occupancy="0.77" waitingTime="0.00" timeLoss="122.38" speed="8.50" speedRelative="0.61" departed="5" arrived="4" entered="48" left="49" laneChangedFrom="0" laneChangedTo="0"/>
        <edge id="-1176129290" sampledSeconds="0.00" departed="0" arrived="0" entered="0" left="0" laneChangedFrom="0" laneChangedTo="0"/>
        <edge id="-1177177536#0" sampledSeconds="400.91" traveltime="2.66" overlapTraveltime="3.59" density="8.04" laneDensity="8.04" occupancy="2.97" waitingTime="43.00" timeLoss="196.82" speed="5.24" speedRelative="0.38" departed="10" arrived="11" entered="107" left="105" laneChangedFrom="0" laneChangedTo="0"/>
        <edge id="-1177177536#1" sampledSeconds="171.87" traveltime="2.45" overlapTraveltime="3.02" density="2.41" laneDensity="2.41" occupancy="0.97" waitingTime="0.00" timeLoss="68.82" speed="8.33" speedRelative="0.60" departed="41" arrived="0" entered="25" left="66" laneChangedFrom="0" laneChangedTo="0"/>
        <edge id="-1177178388" sampledSeconds="0.00" departed="0" arrived="0" entered="0" left="0" laneChangedFrom="0" laneChangedTo="0"/>
        <edge id="-1187806250" sampledSeconds="87.08" traveltime="2.33" overlapTraveltime="3.26" density="1.98" laneDensity="1.98" occupancy="0.66" waitingTime="6.00" timeLoss="43.94" speed="5.05" speedRelative="0.36" departed="32" arrived="0" entered="3" left="35" laneChangedFrom="0" laneChangedTo="0"/>
        <edge id="-1187815339" sampledSeconds="25.51" traveltime="6.25" overlapTraveltime="6.57" density="0.09" laneDensity="0.09" occupancy="0.02" waitingTime="0.00" timeLoss="3.87" speed="12.04" speedRelative="0.87" departed="4" arrived="0" entered="0" left="4" laneChangedFrom="0" laneChangedTo="0"/>
        <edge id="-1189813847" sampledSeconds="2344.96" traveltime="40.21" overlapTraveltime="41.90" density="13.11" laneDensity="13.11" occupancy="6.68" waitingTime="1908.00" timeLoss="2099.92" speed="1.31" speedRelative="0.09" departed="62" arrived="0" entered="0" left="62" laneChangedFrom="0" laneChangedTo="0" teleported="1"/>
        <edge id="-1192259547#0" sampledSeconds="0.00" departed="0" arrived="0" entered="0" left="0" laneChangedFrom="0" laneChangedTo="0"/>
        <edge id="-1192259547#1" sampledSeconds="0.00" departed="0" arrived="0" entered="0" left="0" laneChangedFrom="0" laneChangedTo="0"/>
        <edge id="-1192259547#2" sampledSeconds="0.00" departed="0" arrived="0" entered="0" left="0" laneChangedFrom="0" laneChangedTo="0"/>
        <edge id="-1192260047" sampledSeconds="0.00" departed="0" arrived="0" entered="0" left="0" laneChangedFrom="0" laneChangedTo="0"/>
        <edge id="-1192260334" sampledSeconds="0.00" departed="0" arrived="0" entered="0" left="0" laneChangedFrom="0" laneChangedTo="0"/>
        <edge id="-1192260787" sampledSeconds="221.72" traveltime="3.07" overlapTraveltime="4.87" density="2.84" laneDensity="2.84" occupancy="1.18" waitingTime="83.00" timeLoss="132.52" speed="5.58" speedRelative="0.40" departed="40" arrived="0" entered="14" left="54" laneChangedFrom="0" laneChangedTo="0"/>
        <edge id="-1192261218" sampledSeconds="0.00" departed="0" arrived="0" entered="0" left="0" laneChangedFrom="0" laneChangedTo="0"/>
        <edge id="-1192349845" sampledSeconds="189.87" traveltime="5.84" overlapTraveltime="6.65" density="1.30" laneDensity="1.30" occupancy="0.66" waitingTime="67.00" timeLoss="91.86" speed="6.93" speedRelative="0.50" departed="33" arrived="0" entered="0" left="31" laneChangedFrom="0" laneChangedTo="0"/>
        <edge id="-1192350266" sampledSeconds="0.00" departed="0" arrived="0" entered="0" left="0" laneChangedFrom="0" laneChangedTo="0"/>
        <edge id="-1216472561" sampledSeconds="0.00" departed="0" arrived="0" entered="0" left="0" laneChangedFrom="0" laneChangedTo="0"/>
        <edge id="-1238879358#0" sampledSeconds="170.33" traveltime="0.97" overlapTraveltime="2.49" density="8.53" laneDensity="8.53" occupancy="2.37" waitingTime="0.00" timeLoss="89.64" speed="4.58" speedRelative="0.21" departed="0" arrived="18" entered="75" left="57" laneChangedFrom="0" laneChangedTo="0"/>
        <edge id="-1238879358#1" sampledSeconds="302.19" traveltime="3.31" overlapTraveltime="3.86" density="2.00" laneDensity="2.00" occupancy="1.00" waitingTime="0.00" timeLoss="131.02" speed="12.41" speedRelative="0.56" departed="13" arrived="6" entered="68" left="75" laneChangedFrom="0" laneChangedTo="0"/>
        <edge id="-1238879358#3" sampledSeconds="251.54" traveltime="1.99" overlapTraveltime="2.68" density="3.33" laneDensity="3.33" occupancy="1.60" waitingTime="0.00" timeLoss="114.88" speed="10.16" speedRelative="0.46" departed="15" arrived="4" entered="86" left="97" laneChangedFrom="0" laneChangedTo="0"/>
        <edge id="-1238879358#4" sampledSeconds="138.18" traveltime="1.09" overlapTraveltime="1.64" density="3.07" laneDensity="3.07" occupancy="1.26" waitingTime="0.00" timeLoss="67.02" speed="11.43" speedRelative="0.51" departed="11" arrived="7" entered="82" left="86" laneChangedFrom="0" laneChangedTo="0"/>
        <edge id="-1238879358#5" sampledSeconds="1331.15" traveltime="12.16" overlapTraveltime="13.38" density="2.10" laneDensity="2.10" occupancy="1.10" waitingTime="91.00" timeLoss="489.92" speed="13.59" speedRelative="0.61" departed="8" arrived="3" entered="92" left="97" laneChangedFrom="0" laneChangedTo="0"/>
        <edge id="-1238879358#6" sampledSeconds="2868.33" traveltime="69.75" overlapTraveltime="72.86" density="9.58" laneDensity="9.58" occupancy="7.27" waitingTime="2369.00" timeLoss="2688.59" speed="1.25" speedRelative="0.06" departed="8" arrived="5" entered="33" left="36" laneChangedFrom="0" laneChangedTo="0"/>
        <edge id="-1243421938" sampledSeconds="0.00" departed="0" arrived="0" entered="0" left="0" laneChangedFrom="0" laneChangedTo="0"/>
        <edge id="-1243425888" sampledSeconds="463.07" traveltime="16.11" overlapTraveltime="17.31" density="2.03" laneDensity="2.03" occupancy="0.99" waitingTime="260.00" timeLoss="319.88" speed="3.96" speedRelative="0.29" departed="29" arrived="0" entered="0" left="28" laneChangedFrom="0" laneChangedTo="0"/>
        <edge id="-1243972960" sampledSeconds="0.00" departed="0" arrived="0" entered="0" left="0" laneChangedFrom="0" laneChangedTo="0"/>
        <edge id="-124611611#0" sampledSeconds="133.05" traveltime="5.32" overlapTraveltime="5.81" density="0.68" laneDensity="0.68" occupancy="0.21" waitingTime="0.00" timeLoss="36.02" speed="9.91" speedRelative="0.71" departed="2" arrived="0" entered="21" left="23" laneChangedFrom="0" laneChangedTo="0"/>
        <edge id="-124611611#1" sampledSeconds="30.07" traveltime="1.42" overlapTraveltime="1.67" density="0.49" laneDensity="0.49" occupancy="0.13" waitingTime="0.00" timeLoss="4.01" speed="12.12" speedRelative="0.87" departed="0" arrived="1" entered="18" left="17" laneChangedFrom="0" laneChangedTo="0"/>
        <edge id="-124611611#2" sampledSeconds="9.88" traveltime="0.03" overlapTraveltime="0.47" density="13.72" laneDensity="13.72" occupancy="0.26" waitingTime="0.00" timeLoss="1.37" speed="7.86" speedRelative="0.57" departed="0" arrived="1" entered="23" left="22" laneChangedFrom="0" laneChangedTo="0"/>
        <edge id="-124611611#3" sampledSeconds="241.60" traveltime="9.76" overlapTraveltime="10.08" density="0.56" laneDensity="0.56" occupancy="0.17" waitingTime="0.00" timeLoss="34.30" speed="12.28" speedRelative="0.88" departed="1" arrived="1" entered="23" left="23" laneChangedFrom="0" laneChangedTo="0"/>
        <edge id="-124611611#4" sampledSeconds="24.66" traveltime="6.13" overlapTraveltime="6.51" density="0.09" laneDensity="0.09" occupancy="0.04" waitingTime="0.00" timeLoss="1.82" speed="12.24" speedRelative="0.88" departed="4" arrived="0" entered="0" left="4" laneChangedFrom="0" laneChangedTo="0"/>
        <edge id="-124611617#1" sampledSeconds="36.16" traveltime="6.93" overlapTraveltime="7.34" density="0.13" laneDensity="0.13" occupancy="0.06" waitingTime="0.00" timeLoss="7.04" speed="10.75" speedRelative="0.77" departed="1" arrived="3" entered="4" left="2" laneChangedFrom="0" laneChangedTo="0"/>
        <edge id="-124611617#2" sampledSeconds="22.86" traveltime="11.40" overlapTraveltime="11.66" density="0.05" laneDensity="0.05" occupancy="0.02" waitingTime="0.00" timeLoss="5.01" speed="11.14" speedRelative="0.80" departed="1" arrived="1" entered="1" left="1" laneChangedFrom="0" laneChangedTo="0"/>
        <edge id="-124611620" sampledSeconds="87.40" traveltime="14.08" overlapTraveltime="14.69" density="0.15" laneDensity="0.15" occupancy="0.05" waitingTime="0.00" timeLoss="15.09" speed="11.33" speedRelative="0.82" departed="2" arrived="1" entered="4" left="5" laneChangedFrom="0" laneChangedTo="0"/>
        <edge id="-124858284#0" sampledSeconds="313.80" traveltime="7.24" overlapTraveltime="8.03" density="1.28" laneDensity="1.28" occupancy="0.58" waitingTime="0.00" timeLoss="90.33" speed="9.10" speedRelative="0.65" departed="10" arrived="5" entered="30" left="35" laneChangedFrom="0" laneChangedTo="0"/>
        <edge id="-124858284#1" sampledSeconds="222.16" traveltime="6.09" overlapTraveltime="6.75" density="1.05" laneDensity="1.05" occupancy="0.46" waitingTime="0.00" timeLoss="57.99" speed="9.45" speedRelative="0.68" departed="9" arrived="5" entered="25" left="29" laneChangedFrom="0" laneChangedTo="0"/>
        <edge id="-124858284#2" sampledSeconds="259.13" traveltime="7.02" overlapTraveltime="7.82" density="1.37" laneDensity="1.37" occupancy="0.54" waitingTime="39.00" timeLoss="115.28" speed="7.26" speedRelative="0.52" departed="8" arrived="2" entered="26" left="32" laneChangedFrom="0" laneChangedTo="0"/>
        <edge id="-124858284#3" sampledSeconds="181.74" traveltime="4.80" overlapTraveltime="5.30" density="0.99" laneDensity="0.99" occupancy="0.42" waitingTime="0.00" timeLoss="37.77" speed="10.51" speedRelative="0.76" departed="6" arrived="4" entered="29" left="31" laneChangedFrom="0" laneChangedTo="0"/>
        <edge id="-124858284#4" sampledSeconds="234.82" traveltime="4.67" overlapTraveltime="5.24" density="1.43" laneDensity="1.43" occupancy="0.59" waitingTime="0.00" timeLoss="60.33" speed="9.61" speedRelative="0.69" departed="6" arrived="3" entered="40" left="43" laneChangedFrom="0" laneChangedTo="0"/>
        <edge id="-124858284#5" sampledSeconds="2080.50" traveltime="40.11" overlapTraveltime="40.56" density="13.54" laneDensity="13.54" occupancy="6.58" waitingTime="1738.00" timeLoss="1892.33" speed="1.18" speedRelative="0.08" departed="7" arrived="3" entered="45" left="48" laneChangedFrom="0" laneChangedTo="0" teleported="1"/>
        <edge id="-124858284#7" sampledSeconds="484.06" traveltime="9.87" overlapTraveltime="10.75" density="4.99" laneDensity="4.99" occupancy="2.38" waitingTime="283.00" timeLoss="371.78" speed="2.99" speedRelative="0.22" departed="8" arrived="3" entered="38" left="43" laneChangedFrom="0" laneChangedTo="0"/>
        <edge id="-124858284#9" sampledSeconds="480.26" traveltime="8.11" overlapTraveltime="8.96" density="1.92" laneDensity="1.92" occupancy="1.08" waitingTime="0.00" timeLoss="175.21" speed="8.47" speedRelative="0.61" departed="12" arrived="3" entered="43" left="52" laneChangedFrom="0" laneChangedTo="0"/>
        <edge id="-124861796#0" sampledSeconds="5456.57" traveltime="66.02" overlapTraveltime="67.45" density="16.99" laneDensity="16.99" occupancy="8.26" waitingTime="4391.00" timeLoss="4866.79" speed="1.40" speedRelative="0.10" departed="11" arrived="3" entered="74" left="73" laneChangedFrom="0" laneChangedTo="0" teleported="1"/>
        <edge id="-124861796#2" sampledSeconds="1407.23" traveltime="37.56" overlapTraveltime="44.83" density="4.20" laneDensity="4.20" occupancy="1.83" waitingTime="966.00" timeLoss="1180.99" speed="2.18" speedRelative="0.16" departed="10" arrived="6" entered="22" left="26" laneChangedFrom="0" laneChangedTo="0"/>
        <edge id="-124861802" sampledSeconds="3992.79" traveltime="30.07" overlapTraveltime="30.96" density="6.35" laneDensity="6.35" occupancy="3.32" waitingTime="1614.00" timeLoss="2308.20" speed="5.82" speedRelative="0.42" departed="15" arrived="3" entered="125" left="115" laneChangedFrom="0" laneChangedTo="0"/>
        <edge id="-124861803#0" sampledSeconds="211.85" traveltime="11.47" overlapTraveltime="11.97" density="0.42" laneDensity="0.42" occupancy="0.25" waitingTime="0.00" timeLoss="20.58" speed="12.13" speedRelative="0.87" departed="0" arrived="18" entered="18" left="0" laneChangedFrom="0" laneChangedTo="0"/>
        <edge id="-124861803#2" sampledSeconds="21804.02" traveltime="410.99" overlapTraveltime="417.97" density="38.78" laneDensity="38.78" occupancy="24.89" waitingTime="20123.00" timeLoss="21167.46" speed="0.39" speedRelative="0.03" departed="7" arrived="2" entered="58" left="43" laneChangedFrom="0" laneChangedTo="0" teleported="3"/>
        <edge id="-124861803#3" sampledSeconds="2304.92" traveltime="23.01" overlapTraveltime="23.27" density="40.42" laneDensity="40.42" occupancy="17.24" waitingTime="1987.00" timeLoss="2153.63" speed="0.87" speedRelative="0.06" departed="14" arrived="6" entered="89" left="95" laneChangedFrom="0" laneChangedTo="0" teleported="1"/>
        <edge id="-124861809#0" sampledSeconds="653.54" traveltime="12.67" overlapTraveltime="13.58" density="2.04" laneDensity="2.04" occupancy="0.81" waitingTime="162.00" timeLoss="312.11" speed="6.87" speedRelative="0.49" departed="13" arrived="4" entered="36" left="44" laneChangedFrom="0" laneChangedTo="0"/>
        <edge id="-124861809#1" sampledSeconds="239.36" traveltime="8.66" overlapTraveltime="9.22" density="0.78" laneDensity="0.78" occupancy="0.29" waitingTime="1.00" timeLoss="66.53" speed="9.69" speedRelative="0.70" departed="5" arrived="4" entered="22" left="22" laneChangedFrom="0" laneChangedTo="0"/>
        <edge id="-124861812#0" sampledSeconds="145.57" traveltime="2.46" overlapTraveltime="3.36" density="1.50" laneDensity="1.50" occupancy="0.64" waitingTime="0.00" timeLoss="30.84" speed="9.61" speedRelative="0.69" departed="0" arrived="27" entered="44" left="17" laneChangedFrom="0" laneChangedTo="0"/>
        <edge id="-124861812#1" sampledSeconds="301.39" traveltime="5.86" overlapTraveltime="6.31" density="1.42" laneDensity="1.42" occupancy="0.72" waitingTime="0.00" timeLoss="82.32" speed="10.25" speedRelative="0.74" departed="10" arrived="5" entered="39" left="44" laneChangedFrom="0" laneChangedTo="0"/>
        <edge id="-124861812#2" sampledSeconds="381.98" traveltime="9.09" overlapTraveltime="9.99" density="1.21" laneDensity="1.21" occupancy="0.65" waitingTime="4.00" timeLoss="126.97" speed="9.34" speedRelative="0.67" departed="5" arrived="4" entered="34" left="35" laneChangedFrom="0" laneChangedTo="0"/>
        <edge id="-124861817#0" sampledSeconds="33555.07" traveltime="665.81" overlapTraveltime="678.35" density="50.88" laneDensity="50.88" occupancy="31.51" waitingTime="31344.00" timeLoss="32868.71" speed="0.28" speedRelative="0.02" departed="6" arrived="4" entered="53" left="37" laneChangedFrom="0" laneChangedTo="0" teleported="3"/>
        <edge id="-124861817#1" sampledSeconds="7513.35" traveltime="113.48" overlapTraveltime="114.02" density="46.12" laneDensity="46.12" occupancy="19.10" waitingTime="6892.00" timeLoss="7271.78" speed="0.43" speedRelative="0.03" departed="2" arrived="7" entered="68" left="56" laneChangedFrom="0" laneChangedTo="0" teleported="3"/>
        <edge id="-124861817#2" sampledSeconds="8261.00" traveltime="110.87" overlapTraveltime="113.21" density="19.75" laneDensity="19.75" occupancy="12.41" waitingTime="7169.00" timeLoss="7621.67" speed="1.08" speedRelative="0.08" departed="10" arrived="5" entered="71" left="63" laneChangedFrom="0" laneChangedTo="0" teleported="1"/>
        <edge id="-124861817#3" sampledSeconds="4833.28" traveltime="63.51" overlapTraveltime="64.29" density="23.06" laneDensity="23.06" occupancy="10.32" waitingTime="4224.00" timeLoss="4488.48" speed="0.98" speedRelative="0.07" departed="10" arrived="5" entered="69" left="66" laneChangedFrom="0" laneChangedTo="0"/>
        <edge id="-124861817#4" sampledSeconds="3475.55" traveltime="81.49" overlapTraveltime="82.41" density="14.10" laneDensity="14.10" occupancy="5.60" waitingTime="3109.00" timeLoss="3255.37" speed="0.88" speedRelative="0.06" departed="5" arrived="6" entered="42" left="31" laneChangedFrom="0" laneChangedTo="0"/>
        <edge id="-124861817#5" sampledSeconds="318.86" traveltime="7.02" overlapTraveltime="7.96" density="1.27" laneDensity="1.27" occupancy="0.59" waitingTime="22.00" timeLoss="86.87" speed="9.36" speedRelative="0.67" departed="43" arrived="0" entered="0" left="43" laneChangedFrom="0" laneChangedTo="0"/>
        <edge id="-124861823#0" sampledSeconds="1041.81" traveltime="6.49" overlapTraveltime="7.58" density="4.39" laneDensity="4.39" occupancy="2.29" waitingTime="71.00" timeLoss="512.80" speed="9.46" speedRelative="0.43" departed="10" arrived="11" entered="129" left="128" laneChangedFrom="0" laneChangedTo="0"/>
        <edge id="-124861823#1" sampledSeconds="1113.13" traveltime="4.66" overlapTraveltime="5.87" density="5.14" laneDensity="5.14" occupancy="2.53" waitingTime="171.00" timeLoss="509.47" speed="11.20" speedRelative="0.50" departed="9" arrived="7" entered="183" left="185" laneChangedFrom="0" laneChangedTo="0"/>
        <edge id="-124861823#2" sampledSeconds="1558.40" traveltime="5.49" overlapTraveltime="6.39" density="8.04" laneDensity="8.04" occupancy="3.61" waitingTime="352.00" timeLoss="854.38" speed="9.24" speedRelative="0.42" departed="7" arrived="7" entered="238" left="238" laneChangedFrom="0" laneChangedTo="0"/>
        <edge id="-124861823#3" sampledSeconds="986.43" traveltime="3.44" overlapTraveltime="3.93" density="5.75" laneDensity="5.75" occupancy="2.63" waitingTime="37.00" timeLoss="365.28" speed="13.47" speedRelative="0.61" departed="10" arrived="2" entered="243" left="251" laneChangedFrom="0" laneChangedTo="0"/>
        <edge id="-124861823#4" sampledSeconds="1108.63" traveltime="4.20" overlapTraveltime="5.00" density="6.59" laneDensity="6.59" occupancy="3.05" waitingTime="187.00" timeLoss="571.93" speed="10.42" speedRelative="0.47" departed="6" arrived="3" entered="217" left="220" laneChangedFrom="0" laneChangedTo="0"/>
        <edge id="-124861823#5" sampledSeconds="5999.62" traveltime="29.89" overlapTraveltime="31.19" density="37.38" laneDensity="37.38" occupancy="17.98" waitingTime="5056.00" timeLoss="5534.42" speed="1.59" speedRelative="0.07" departed="6" arrived="7" entered="189" left="184" laneChangedFrom="0" laneChangedTo="0" teleported="1"/>
        <edge id="-124861823#6" sampledSeconds="4060.69" traveltime="25.29" overlapTraveltime="25.51" density="24.92" laneDensity="24.92" occupancy="11.81" waitingTime="3319.00" timeLoss="3695.83" speed="1.96" speedRelative="0.09" departed="5" arrived="4" entered="153" left="154" laneChangedFrom="0" laneChangedTo="0" teleported="1"/>
        <edge id="-124861823#7" sampledSeconds="2788.78" traveltime="18.69" overlapTraveltime="19.42" density="11.97" laneDensity="11.97" occupancy="6.58" waitingTime="1682.00" timeLoss="2330.14" speed="3.63" speedRelative="0.16" departed="8" arrived="6" entered="137" left="139" laneChangedFrom="0" laneChangedTo="0"/>
        <edge id="-124861824#0" sampledSeconds="48691.86" traveltime="794.70" overlapTraveltime="801.57" density="74.08" laneDensity="74.08" occupancy="38.62" waitingTime="43842.00" timeLoss="47867.15" speed="0.23" speedRelative="0.02" departed="9" arrived="3" entered="58" left="48" laneChangedFrom="0" laneChangedTo="0" teleported="3"/>
        <edge id="-124861824#1" sampledSeconds="15511.88" traveltime="164.80" overlapTraveltime="166.07" density="51.91" laneDensity="51.91" occupancy="25.97" waitingTime="14313.00" timeLoss="14900.05" speed="0.53" speedRelative="0.04" departed="6" arrived="1" entered="101" left="94" laneChangedFrom="0" laneChangedTo="0" teleported="1"/>
        <edge id="-124861824#2" sampledSeconds="12212.39" traveltime="128.97" overlapTraveltime="131.54" density="43.68" laneDensity="43.68" occupancy="26.07" waitingTime="11163.00" timeLoss="11649.45" speed="0.64" speedRelative="0.05" departed="4" arrived="2" entered="102" left="94" laneChangedFrom="0" laneChangedTo="0" teleported="2"/>
        <edge id="-124861824#3" sampledSeconds="8816.32" traveltime="122.81" overlapTraveltime="127.10" density="17.11" laneDensity="17.11" occupancy="10.90" waitingTime="7542.00" timeLoss="8056.29" speed="1.18" speedRelative="0.08" departed="6" arrived="2" entered="69" left="61" laneChangedFrom="0" laneChangedTo="0" teleported="1"/>
        <edge id="-124861825#0" sampledSeconds="776.66" traveltime="9.67" overlapTraveltime="10.41" density="2.41" laneDensity="2.41" occupancy="1.06" waitingTime="116.00" timeLoss="253.32" speed="9.08" speedRelative="0.65" departed="6" arrived="5" entered="69" left="70" laneChangedFrom="0" laneChangedTo="0"/>
        <edge id="-124861825#1" sampledSeconds="5962.46" traveltime="45.51" overlapTraveltime="47.25" density="40.44" laneDensity="40.44" occupancy="19.11" waitingTime="4769.00" timeLoss="5509.25" speed="0.97" speedRelative="0.07" departed="8" arrived="0" entered="123" left="126" laneChangedFrom="0" laneChangedTo="0" teleported="1"/>
        <edge id="-124861825#10" sampledSeconds="14658.73" traveltime="138.59" overlapTraveltime="142.02" density="106.62" laneDensity="106.62" occupancy="47.93" waitingTime="13392.00" timeLoss="14324.71" speed="0.30" speedRelative="0.02" departed="7" arrived="3" entered="124" left="122" laneChangedFrom="0" laneChangedTo="0" teleported="5"/>
        <edge id="-124861825#2" sampledSeconds="2720.12" traveltime="21.51" overlapTraveltime="22.17" density="22.74" laneDensity="22.74" occupancy="10.22" waitingTime="2155.00" timeLoss="2375.79" speed="1.71" speedRelative="0.12" departed="7" arrived="2" entered="120" left="120" laneChangedFrom="0" laneChangedTo="0"/>
        <edge id="-124861825#3" sampledSeconds="3587.43" traveltime="20.91" overlapTraveltime="21.90" density="31.89" laneDensity="31.89" occupancy="12.15" waitingTime="2865.00" timeLoss="3142.57" speed="1.62" speedRelative="0.12" departed="7" arrived="6" entered="164" left="158" laneChangedFrom="0" laneChangedTo="0"/>
        <edge id="-124861825#5" sampledSeconds="5304.14" traveltime="32.23" overlapTraveltime="34.57" density="43.53" laneDensity="43.53" occupancy="16.59" waitingTime="4550.00" timeLoss="4867.52" speed="1.10" speedRelative="0.08" departed="9" arrived="3" entered="153" left="153" laneChangedFrom="0" laneChangedTo="0" teleported="1"/>
        <edge id="-124861825#6" sampledSeconds="11275.50" traveltime="85.25" overlapTraveltime="86.23" density="32.83" laneDensity="32.83" occupancy="14.83" waitingTime="9652.00" timeLoss="10310.33" speed="1.16" speedRelative="0.08" departed="6" arrived="2" entered="139" left="128" laneChangedFrom="0" laneChangedTo="0" teleported="1"/>
        <edge id="-124861825#7" sampledSeconds="8082.38" traveltime="61.36" overlapTraveltime="62.62" density="25.29" laneDensity="25.29" occupancy="12.97" waitingTime="6332.00" timeLoss="7183.00" speed="1.50" speedRelative="0.11" departed="1" arrived="3" entered="138" left="125" laneChangedFrom="0" laneChangedTo="0"/>