<?xml version="1.0" encoding="UTF-8"?>

<!-- generated on 2025-09-21 13:29:20 by Eclipse SUMO GUI Version 1.24.0
<sumoConfiguration xmlns:xsi="http://www.w3.org/2001/XMLSchema-instance" xsi:noNamespaceSchemaLocation="http://sumo.dlr.de/xsd/sumoConfiguration.xsd">

    <input>
        <net-file value="/home/vishwajit/Workspace/SIH2025/FDRL/sumo_files/2025-09-21-13-29-13/osm.net.xml.gz"/>
        <route-files value="/home/vishwajit/Workspace/SIH2025/FDRL/sumo_files/2025-09-21-13-29-13/osm_pt.rou.xml,/home/vishwajit/Workspace/SIH2025/FDRL/sumo_files/2025-09-21-13-29-13/osm.bus.trips.xml,/home/vishwajit/Workspace/SIH2025/FDRL/sumo_files/2025-09-21-13-29-13/osm.motorcycle.trips.xml,/home/vishwajit/Workspace/SIH2025/FDRL/sumo_files/2025-09-21-13-29-13/osm.passenger.trips.xml,/home/vishwajit/Workspace/SIH2025/FDRL/sumo_files/2025-09-21-13-29-13/osm.truck.trips.xml"/>
        <additional-files value="/home/vishwajit/Workspace/SIH2025/FDRL/sumo_files/2025-09-21-13-29-13/osm.poly.xml.gz,/home/vishwajit/Workspace/SIH2025/FDRL/sumo_files/2025-09-21-13-29-13/osm_stops.add.xml,/home/vishwajit/Workspace/SIH2025/FDRL/sumo_files/2025-09-21-13-29-13/output.add.xml"/>
    </input>

    <output>
        <tripinfo-output value="/home/vishwajit/Workspace/SIH2025/FDRL/sumo_files/2025-09-21-13-29-13/tripinfos.xml"/>
        <stop-output value="/home/vishwajit/Workspace/SIH2025/FDRL/sumo_files/2025-09-21-13-29-13/stopinfos.xml"/>
        <statistic-output value="/home/vishwajit/Workspace/SIH2025/FDRL/sumo_files/2025-09-21-13-29-13/stats.xml"/>
    </output>

    <processing>
        <ignore-route-errors value="true"/>
        <tls.actuated.jam-threshold value="30"/>
    </processing>

    <routing>
        <device.rerouting.adaptation-steps value="18"/>
        <device.rerouting.adaptation-interval value="10"/>
    </routing>

    <report>
        <verbose value="true"/>
        <duration-log.statistics value="true"/>
        <no-step-log value="true"/>
    </report>

    <gui_only>
        <gui-settings-file value="/home/vishwajit/Workspace/SIH2025/FDRL/sumo_files/2025-09-21-13-29-13/osm.view.xml"/>
    </gui_only>

</sumoConfiguration>
-->

<tripinfos xmlns:xsi="http://www.w3.org/2001/XMLSchema-instance" xsi:noNamespaceSchemaLocation="http://sumo.dlr.de/xsd/tripinfo_file.xsd">
    <tripinfo id="motorcycle2" depart="6.00" departLane="-220589497#2_0" departPos="2.30" departSpeed="14.53" departDelay="0.07" arrival="60.00" arrivalLane="438962717#1_0" arrivalPos="42.06" arrivalSpeed="12.84" duration="54.00" routeLength="634.63" waitingTime="0.00" waitingCount="0" stopTime="0.00" timeLoss="8.56" rerouteNo="1" devices="tripinfo_motorcycle2 routing_motorcycle2" vType="motorcycle_motorcycle" speedFactor="1.05" vaporized=""/>
    <tripinfo id="motorcycle7" depart="21.00" departLane="1265177027#0_0" departPos="2.30" departSpeed="0.00" departDelay="0.25" arrival="64.00" arrivalLane="124861812#2_0" arrivalPos="87.47" arrivalSpeed="11.80" duration="43.00" routeLength="688.03" waitingTime="0.00" waitingCount="0" stopTime="0.00" timeLoss="6.01" rerouteNo="1" devices="tripinfo_motorcycle7 routing_motorcycle7" vType="motorcycle_motorcycle" speedFactor="1.03" vaporized=""/>
    <tripinfo id="motorcycle8" depart="24.00" departLane="-725293625#1_0" departPos="2.30" departSpeed="23.27" departDelay="0.28" arrival="64.00" arrivalLane="124858284#7_0" arrivalPos="26.94" arrivalSpeed="13.61" duration="40.00" routeLength="478.40" waitingTime="0.00" waitingCount="0" stopTime="0.00" timeLoss="6.25" rerouteNo="1" devices="tripinfo_motorcycle8 routing_motorcycle8" vType="motorcycle_motorcycle" speedFactor="1.05" vaporized=""/>
    <tripinfo id="motorcycle11" depart="33.00" departLane="1238879358#0_0" departPos="2.30" departSpeed="20.59" departDelay="0.39" arrival="69.00" arrivalLane="665946597#0_0" arrivalPos="181.28" arrivalSpeed="17.54" duration="36.00" routeLength="603.68" waitingTime="0.00" waitingCount="0" stopTime="0.00" timeLoss="8.28" rerouteNo="1" devices="tripinfo_motorcycle11 routing_motorcycle11" vType="motorcycle_motorcycle" speedFactor="0.93" vaporized=""/>
    <tripinfo id="motorcycle1" depart="3.00" departLane="-608078456_0" departPos="2.30" departSpeed="13.03" departDelay="0.04" arrival="70.00" arrivalLane="1192349845_0" arrivalPos="40.67" arrivalSpeed="11.23" duration="67.00" routeLength="940.36" waitingTime="0.00" waitingCount="0" stopTime="0.00" timeLoss="12.23" rerouteNo="1" devices="tripinfo_motorcycle1 routing_motorcycle1" vType="motorcycle_motorcycle" speedFactor="0.94" vaporized=""/>
    <tripinfo id="motorcycle17" depart="51.00" departLane="-1238879358#1_0" departPos="2.30" departSpeed="0.00" departDelay="0.60" arrival="70.00" arrivalLane="1192260787_0" arrivalPos="27.03" arrivalSpeed="12.83" duration="19.00" routeLength="176.81" waitingTime="0.00" waitingCount="0" stopTime="0.00" timeLoss="7.24" rerouteNo="1" devices="tripinfo_motorcycle17 routing_motorcycle17" vType="motorcycle_motorcycle" speedFactor="1.01" vaporized=""/>
    <tripinfo id="motorcycle12" depart="36.00" departLane="124861812#2_0" departPos="2.30" departSpeed="0.00" departDelay="0.42" arrival="77.00" arrivalLane="-124861809#1_0" arrivalPos="85.35" arrivalSpeed="9.83" duration="41.00" routeLength="378.60" waitingTime="0.00" waitingCount="0" stopTime="0.00" timeLoss="7.86" rerouteNo="1" devices="tripinfo_motorcycle12 routing_motorcycle12" vType="motorcycle_motorcycle" speedFactor="0.88" vaporized=""/>
    <tripinfo id="veh0" depart="0.00" departLane="-124861823#1_0" departPos="5.10" departSpeed="0.00" departDelay="0.00" arrival="80.00" arrivalLane="-1238879358#4_0" arrivalPos="12.52" arrivalSpeed="22.39" duration="80.00" routeLength="1195.78" waitingTime="0.00" waitingCount="0" stopTime="0.00" timeLoss="20.84" rerouteNo="1" devices="tripinfo_veh0 routing_veh0" vType="veh_passenger" speedFactor="1.01" vaporized=""/>
    <tripinfo id="veh8" depart="24.00" departLane="124861803#0_0" departPos="5.10" departSpeed="14.37" departDelay="0.28" arrival="80.00" arrivalLane="-725363522#0_0" arrivalPos="176.54" arrivalSpeed="13.74" duration="56.00" routeLength="590.13" waitingTime="0.00" waitingCount="0" stopTime="0.00" timeLoss="12.72" rerouteNo="1" devices="tripinfo_veh8 routing_veh8" vType="veh_passenger" speedFactor="1.03" vaporized=""/>
    <tripinfo id="motorcycle9" depart="27.00" departLane="-220589497#2_0" departPos="2.30" departSpeed="15.60" departDelay="0.32" arrival="81.00" arrivalLane="-124611620_0" arrivalPos="162.61" arrivalSpeed="14.42" duration="54.00" routeLength="616.02" waitingTime="0.00" waitingCount="0" stopTime="0.00" timeLoss="10.87" rerouteNo="1" devices="tripinfo_motorcycle9 routing_motorcycle9" vType="motorcycle_motorcycle" speedFactor="1.12" vaporized=""/>
    <tripinfo id="veh11" depart="33.00" departLane="-214085922#5_0" departPos="5.10" departSpeed="0.00" departDelay="0.39" arrival="82.00" arrivalLane="317349751#1_0" arrivalPos="115.57" arrivalSpeed="13.03" duration="49.00" routeLength="613.93" waitingTime="0.00" waitingCount="0" stopTime="0.00" timeLoss="9.70" rerouteNo="1" devices="tripinfo_veh11 routing_veh11" vType="veh_passenger" speedFactor="0.97" vaporized=""/>
    <tripinfo id="motorcycle10" depart="30.00" departLane="317349751#1_0" departPos="2.30" departSpeed="0.00" departDelay="0.35" arrival="84.00" arrivalLane="1243425888_0" arrivalPos="63.58" arrivalSpeed="10.97" duration="54.00" routeLength="469.08" waitingTime="2.00" waitingCount="1" stopTime="0.00" timeLoss="19.40" rerouteNo="1" devices="tripinfo_motorcycle10 routing_motorcycle10" vType="motorcycle_motorcycle" speedFactor="0.99" vaporized=""/>
    <tripinfo id="veh9" depart="27.00" departLane="214085922#5_0" departPos="5.10" departSpeed="0.00" departDelay="0.32" arrival="86.00" arrivalLane="124861821#2_0" arrivalPos="32.27" arrivalSpeed="16.43" duration="59.00" routeLength="869.90" waitingTime="0.00" waitingCount="0" stopTime="0.00" timeLoss="21.06" rerouteNo="1" devices="tripinfo_veh9 routing_veh9" vType="veh_passenger" speedFactor="1.00" vaporized=""/>
    <tripinfo id="veh2" depart="6.00" departLane="124861814_0" departPos="1.44" departSpeed="15.00" departDelay="0.07" arrival="92.00" arrivalLane="-725293625#0_0" arrivalPos="89.15" arrivalSpeed="21.20" duration="86.00" routeLength="1523.34" waitingTime="0.00" waitingCount="0" stopTime="0.00" timeLoss="15.04" rerouteNo="1" devices="tripinfo_veh2 routing_veh2" vType="veh_passenger" speedFactor="0.96" vaporized=""/>
    <tripinfo id="veh15" depart="45.00" departLane="-1303633133_0" departPos="5.10" departSpeed="7.92" departDelay="0.53" arrival="95.00" arrivalLane="124861823#4_0" arrivalPos="46.71" arrivalSpeed="22.44" duration="50.00" routeLength="611.44" waitingTime="0.00" waitingCount="0" stopTime="0.00" timeLoss="10.17" rerouteNo="1" devices="tripinfo_veh15 routing_veh15" vType="veh_passenger" speedFactor="1.04" vaporized=""/>
    <tripinfo id="veh10" depart="30.00" departLane="1303443733_0" departPos="5.10" departSpeed="9.60" departDelay="0.35" arrival="96.00" arrivalLane="124861825#9_0" arrivalPos="86.96" arrivalSpeed="14.11" duration="66.00" routeLength="740.31" waitingTime="0.00" waitingCount="0" stopTime="0.00" timeLoss="19.82" rerouteNo="1" devices="tripinfo_veh10 routing_veh10" vType="veh_passenger" speedFactor="1.02" vaporized=""/>
    <tripinfo id="veh3" depart="9.00" departLane="725363522#0_0" departPos="5.10" departSpeed="0.00" departDelay="0.11" arrival="97.00" arrivalLane="-124861812#1_0" arrivalPos="59.06" arrivalSpeed="13.56" duration="88.00" routeLength="1020.29" waitingTime="0.00" waitingCount="0" stopTime="0.00" timeLoss="17.04" rerouteNo="1" devices="tripinfo_veh3 routing_veh3" vType="veh_passenger" speedFactor="0.98" vaporized=""/>
    <tripinfo id="motorcycle3" depart="9.00" departLane="1126750042_0" departPos="2.30" departSpeed="0.00" departDelay="0.11" arrival="100.00" arrivalLane="214085919#5_0" arrivalPos="36.51" arrivalSpeed="11.40" duration="91.00" routeLength="1082.29" waitingTime="0.00" waitingCount="0" stopTime="0.00" timeLoss="15.70" rerouteNo="1" devices="tripinfo_motorcycle3 routing_motorcycle3" vType="motorcycle_motorcycle" speedFactor="0.89" vaporized=""/>
    <tripinfo id="veh14" depart="44.00" departLane="214085949_0" departPos="5.10" departSpeed="0.00" departDelay="2.49" arrival="102.00" arrivalLane="124861817#5_0" arrivalPos="69.48" arrivalSpeed="13.26" duration="58.00" routeLength="686.41" waitingTime="0.00" waitingCount="0" stopTime="0.00" timeLoss="13.73" rerouteNo="1" devices="tripinfo_veh14 routing_veh14" vType="veh_passenger" speedFactor="1.00" vaporized=""/>
    <tripinfo id="motorcycle23" depart="69.00" departLane="-49591929_0" departPos="2.30" departSpeed="21.08" departDelay="0.81" arrival="103.00" arrivalLane="-124611611#1_0" arrivalPos="17.12" arrivalSpeed="12.45" duration="34.00" routeLength="391.78" waitingTime="0.00" waitingCount="0" stopTime="0.00" timeLoss="9.14" rerouteNo="1" devices="tripinfo_motorcycle23 routing_motorcycle23" vType="motorcycle_motorcycle" speedFactor="0.95" vaporized=""/>
    <tripinfo id="truck0" depart="0.00" departLane="-1265177027#2_0" departPos="7.20" departSpeed="0.00" departDelay="0.00" arrival="104.00" arrivalLane="1192260787_0" arrivalPos="27.03" arrivalSpeed="11.03" duration="104.00" routeLength="1186.86" waitingTime="0.00" waitingCount="0" stopTime="0.00" timeLoss="29.95" rerouteNo="1" devices="tripinfo_truck0 routing_truck0" vType="truck_truck" speedFactor="1.02" vaporized=""/>
    <tripinfo id="motorcycle4" depart="12.00" departLane="-439133784#1_0" departPos="2.30" departSpeed="13.03" departDelay="0.14" arrival="104.00" arrivalLane="-1265177027#0_0" arrivalPos="87.10" arrivalSpeed="19.59" duration="92.00" routeLength="939.50" waitingTime="0.00" waitingCount="0" stopTime="0.00" timeLoss="22.91" rerouteNo="1" devices="tripinfo_motorcycle4 routing_motorcycle4" vType="motorcycle_motorcycle" speedFactor="0.94" vaporized=""/>
    <tripinfo id="veh1" depart="3.00" departLane="-1238879358#4_0" departPos="5.10" departSpeed="0.00" departDelay="0.04" arrival="105.00" arrivalLane="-1126750042_0" arrivalPos="76.57" arrivalSpeed="4.59" duration="102.00" routeLength="1290.50" waitingTime="1.00" waitingCount="1" stopTime="0.00" timeLoss="37.99" rerouteNo="1" devices="tripinfo_veh1 routing_veh1" vType="veh_passenger" speedFactor="1.08" vaporized=""/>
    <tripinfo id="veh12" depart="36.00" departLane="-214085922#3_0" departPos="5.10" departSpeed="0.00" departDelay="0.42" arrival="105.00" arrivalLane="317349751#6_0" arrivalPos="49.66" arrivalSpeed="15.54" duration="69.00" routeLength="994.54" waitingTime="0.00" waitingCount="0" stopTime="0.00" timeLoss="25.74" rerouteNo="1" devices="tripinfo_veh12 routing_veh12" vType="veh_passenger" speedFactor="1.15" vaporized=""/>
    <tripinfo id="motorcycle6" depart="18.00" departLane="-725293625#1_0" departPos="2.30" departSpeed="24.24" departDelay="0.21" arrival="106.00" arrivalLane="1192260787_0" arrivalPos="27.03" arrivalSpeed="14.98" duration="88.00" routeLength="1429.72" waitingTime="0.00" waitingCount="0" stopTime="0.00" timeLoss="21.75" rerouteNo="1" devices="tripinfo_motorcycle6 routing_motorcycle6" vType="motorcycle_motorcycle" speedFactor="1.09" vaporized=""/>
    <tripinfo id="motorcycle27" depart="81.00" departLane="-665946598_0" departPos="2.30" departSpeed="0.00" departDelay="0.95" arrival="108.00" arrivalLane="665946597#2_0" arrivalPos="90.86" arrivalSpeed="31.19" duration="27.00" routeLength="475.32" waitingTime="0.00" waitingCount="0" stopTime="0.00" timeLoss="10.23" rerouteNo="1" devices="tripinfo_motorcycle27 routing_motorcycle27" vType="motorcycle_motorcycle" speedFactor="1.15" vaporized=""/>
    <tripinfo id="motorcycle22" depart="66.00" departLane="-124611617#1_0" departPos="2.30" departSpeed="0.00" departDelay="0.77" arrival="111.00" arrivalLane="220589498#0_0" arrivalPos="84.69" arrivalSpeed="10.36" duration="45.00" routeLength="524.17" waitingTime="0.00" waitingCount="0" stopTime="0.00" timeLoss="8.82" rerouteNo="1" devices="tripinfo_motorcycle22 routing_motorcycle22" vType="motorcycle_motorcycle" speedFactor="0.92" vaporized=""/>
    <tripinfo id="truck2" depart="20.00" departLane="-1192260787_0" departPos="7.20" departSpeed="13.45" departDelay="0.23" arrival="111.00" arrivalLane="1121689775#1_0" arrivalPos="18.13" arrivalSpeed="18.63" duration="91.00" routeLength="1129.49" waitingTime="0.00" waitingCount="0" stopTime="0.00" timeLoss="39.86" rerouteNo="1" devices="tripinfo_truck2 routing_truck2" vType="truck_truck" speedFactor="0.97" vaporized=""/>
    <tripinfo id="veh7" depart="21.00" departLane="124861821#2_0" departPos="5.10" departSpeed="0.00" departDelay="0.25" arrival="112.00" arrivalLane="214085908#1_0" arrivalPos="56.63" arrivalSpeed="15.00" duration="91.00" routeLength="1464.26" waitingTime="0.00" waitingCount="0" stopTime="0.00" timeLoss="29.95" rerouteNo="1" devices="tripinfo_veh7 routing_veh7" vType="veh_passenger" speedFactor="1.09" vaporized=""/>
    <tripinfo id="truck1" depart="10.00" departLane="-1177177536#0_0" departPos="7.20" departSpeed="0.00" departDelay="0.12" arrival="116.00" arrivalLane="124861821#0_0" arrivalPos="0.20" arrivalSpeed="4.89" duration="106.00" routeLength="1095.95" waitingTime="11.00" waitingCount="1" stopTime="0.00" timeLoss="43.44" rerouteNo="1" devices="tripinfo_truck1 routing_truck1" vType="truck_truck" speedFactor="0.92" vaporized=""/>
    <tripinfo id="veh19" depart="57.00" departLane="-124861825#6_0" departPos="5.10" departSpeed="0.00" departDelay="0.67" arrival="116.00" arrivalLane="-124858284#7_0" arrivalPos="26.94" arrivalSpeed="10.75" duration="59.00" routeLength="550.00" waitingTime="0.00" waitingCount="0" stopTime="0.00" timeLoss="15.18" rerouteNo="1" devices="tripinfo_veh19 routing_veh19" vType="veh_passenger" speedFactor="0.89" vaporized=""/>
    <tripinfo id="veh18" depart="54.00" departLane="-1265177027#2_0" departPos="5.10" departSpeed="0.00" departDelay="0.63" arrival="117.00" arrivalLane="725363522#1_0" arrivalPos="180.84" arrivalSpeed="13.67" duration="63.00" routeLength="836.90" waitingTime="0.00" waitingCount="0" stopTime="0.00" timeLoss="10.87" rerouteNo="1" devices="tripinfo_veh18 routing_veh18" vType="veh_passenger" speedFactor="1.02" vaporized=""/>
    <tripinfo id="motorcycle16" depart="48.00" departLane="-124861803#2_0" departPos="2.30" departSpeed="0.00" departDelay="0.56" arrival="123.00" arrivalLane="124861817#2_0" arrivalPos="116.20" arrivalSpeed="13.54" duration="75.00" routeLength="803.36" waitingTime="0.00" waitingCount="0" stopTime="0.00" timeLoss="16.27" rerouteNo="1" devices="tripinfo_motorcycle16 routing_motorcycle16" vType="motorcycle_motorcycle" speedFactor="1.02" vaporized=""/>
    <tripinfo id="veh25" depart="75.00" departLane="-788485782#7_0" departPos="5.10" departSpeed="0.00" departDelay="0.88" arrival="126.00" arrivalLane="317349751#3_0" arrivalPos="29.98" arrivalSpeed="12.21" duration="51.00" routeLength="420.75" waitingTime="0.00" waitingCount="0" stopTime="0.00" timeLoss="14.15" rerouteNo="1" devices="tripinfo_veh25 routing_veh25" vType="veh_passenger" speedFactor="0.91" vaporized=""/>
    <tripinfo id="veh26" depart="78.00" departLane="-124861824#1_0" departPos="5.10" departSpeed="0.00" departDelay="0.91" arrival="128.00" arrivalLane="1274598669#1_0" arrivalPos="183.71" arrivalSpeed="27.04" duration="50.00" routeLength="579.90" waitingTime="0.00" waitingCount="0" stopTime="0.00" timeLoss="17.22" rerouteNo="1" devices="tripinfo_veh26 routing_veh26" vType="veh_passenger" speedFactor="1.12" vaporized=""/>
    <tripinfo id="motorcycle19" depart="57.00" departLane="725363523#2_0" departPos="2.30" departSpeed="0.00" departDelay="0.67" arrival="131.00" arrivalLane="124861817#1_0" arrivalPos="45.25" arrivalSpeed="11.77" duration="74.00" routeLength="753.60" waitingTime="0.00" waitingCount="0" stopTime="0.00" timeLoss="16.56" rerouteNo="1" devices="tripinfo_motorcycle19 routing_motorcycle19" vType="motorcycle_motorcycle" speedFactor="0.89" vaporized=""/>
    <tripinfo id="bus1" depart="10.00" departLane="-1265177027#3_0" departPos="12.10" departSpeed="0.00" departDelay="0.16" arrival="133.00" arrivalLane="-214085913#1_0" arrivalPos="83.87" arrivalSpeed="13.63" duration="123.00" routeLength="990.75" waitingTime="32.00" waitingCount="1" stopTime="0.00" timeLoss="58.88" rerouteNo="1" devices="tripinfo_bus1 routing_bus1" vType="bus_bus" speedFactor="1.00" vaporized=""/>
    <tripinfo id="motorcycle13" depart="39.00" departLane="317349751#5_0" departPos="2.30" departSpeed="0.00" departDelay="0.46" arrival="135.00" arrivalLane="-725363522#1_0" arrivalPos="180.84" arrivalSpeed="12.33" duration="96.00" routeLength="1323.38" waitingTime="0.00" waitingCount="0" stopTime="0.00" timeLoss="20.80" rerouteNo="1" devices="tripinfo_motorcycle13 routing_motorcycle13" vType="motorcycle_motorcycle" speedFactor="0.94" vaporized=""/>
    <tripinfo id="veh4" depart="12.00" departLane="124858284#2_0" departPos="5.10" departSpeed="0.00" departDelay="0.14" arrival="135.00" arrivalLane="725363523#3_0" arrivalPos="0.23" arrivalSpeed="21.75" duration="123.00" routeLength="1556.62" waitingTime="10.00" waitingCount="1" stopTime="0.00" timeLoss="50.06" rerouteNo="1" devices="tripinfo_veh4 routing_veh4" vType="veh_passenger" speedFactor="1.03" vaporized=""/>
    <tripinfo id="motorcycle5" depart="15.00" departLane="214670750_0" departPos="2.30" departSpeed="11.90" departDelay="0.18" arrival="136.00" arrivalLane="317349751#1_0" arrivalPos="115.57" arrivalSpeed="10.89" duration="121.00" routeLength="883.95" waitingTime="5.00" waitingCount="1" stopTime="0.00" timeLoss="28.58" rerouteNo="1" devices="tripinfo_motorcycle5 routing_motorcycle5" vType="motorcycle_motorcycle" speedFactor="0.86" vaporized=""/>
    <tripinfo id="bus0" depart="0.00" departLane="124861809#0_0" departPos="12.10" departSpeed="0.00" departDelay="0.00" arrival="137.00" arrivalLane="-1238879358#1_0" arrivalPos="42.04" arrivalSpeed="15.58" duration="137.00" routeLength="1204.82" waitingTime="7.00" waitingCount="1" stopTime="0.00" timeLoss="62.68" rerouteNo="1" devices="tripinfo_bus0 routing_bus0" vType="bus_bus" speedFactor="1.00" vaporized=""/>
    <tripinfo id="motorcycle0" depart="0.00" departLane="-1126750041#1_0" departPos="2.30" departSpeed="2.95" departDelay="0.00" arrival="137.00" arrivalLane="1265177027#3_0" arrivalPos="88.94" arrivalSpeed="20.95" duration="137.00" routeLength="808.14" waitingTime="32.00" waitingCount="1" stopTime="0.00" timeLoss="67.24" rerouteNo="1" devices="tripinfo_motorcycle0 routing_motorcycle0" vType="motorcycle_motorcycle" speedFactor="1.06" vaporized=""/>
    <tripinfo id="motorcycle15" depart="45.00" departLane="1274598669#0_0" departPos="2.30" departSpeed="0.00" departDelay="0.53" arrival="137.00" arrivalLane="-124858284#0_0" arrivalPos="68.08" arrivalSpeed="13.52" duration="92.00" routeLength="1425.32" waitingTime="0.00" waitingCount="0" stopTime="0.00" timeLoss="27.19" rerouteNo="1" devices="tripinfo_motorcycle15 routing_motorcycle15" vType="motorcycle_motorcycle" speedFactor="1.16" vaporized=""/>
    <tripinfo id="motorcycle18" depart="54.00" departLane="1274598669#0_0" departPos="2.30" departSpeed="0.00" departDelay="0.63" arrival="137.00" arrivalLane="725293625#1_0" arrivalPos="20.23" arrivalSpeed="20.54" duration="83.00" routeLength="1309.88" waitingTime="0.00" waitingCount="0" stopTime="0.00" timeLoss="19.33" rerouteNo="1" devices="tripinfo_motorcycle18 routing_motorcycle18" vType="motorcycle_motorcycle" speedFactor="0.97" vaporized=""/>
    <tripinfo id="bus3" depart="30.00" departLane="-1126750041#0_0" departPos="0.10" departSpeed="0.00" departDelay="0.49" arrival="138.00" arrivalLane="-1265177027#1_0" arrivalPos="98.18" arrivalSpeed="22.14" duration="108.00" routeLength="840.14" waitingTime="33.00" waitingCount="1" stopTime="0.00" timeLoss="63.14" rerouteNo="1" devices="tripinfo_bus3 routing_bus3" vType="bus_bus" speedFactor="1.00" vaporized=""/>
    <tripinfo id="motorcycle26" depart="80.00" departLane="-214085922#2_0" departPos="2.30" departSpeed="0.00" departDelay="2.91" arrival="138.00" arrivalLane="1338550401_0" arrivalPos="15.86" arrivalSpeed="14.83" duration="58.00" routeLength="694.26" waitingTime="0.00" waitingCount="0" stopTime="0.00" timeLoss="26.19" rerouteNo="1" devices="tripinfo_motorcycle26 routing_motorcycle26" vType="motorcycle_motorcycle" speedFactor="1.18" vaporized=""/>
    <tripinfo id="veh17" depart="51.00" departLane="214085972_0" departPos="5.10" departSpeed="0.00" departDelay="0.60" arrival="139.00" arrivalLane="317349751#5_0" arrivalPos="64.50" arrivalSpeed="13.98" duration="88.00" routeLength="679.94" waitingTime="13.00" waitingCount="2" stopTime="0.00" timeLoss="43.95" rerouteNo="1" devices="tripinfo_veh17 routing_veh17" vType="veh_passenger" speedFactor="1.02" vaporized=""/>
    <tripinfo id="truck3" depart="32.00" departLane="1303443733_0" departPos="7.20" departSpeed="3.65" departDelay="2.35" arrival="139.00" arrivalLane="725363523#3_0" arrivalPos="0.23" arrivalSpeed="20.66" duration="107.00" routeLength="1021.07" waitingTime="11.00" waitingCount="3" stopTime="0.00" timeLoss="57.04" rerouteNo="1" devices="tripinfo_truck3 routing_truck3" vType="truck_truck" speedFactor="1.06" vaporized=""/>
    <tripinfo id="bus5" depart="50.00" departLane="-1238879358#3_0" departPos="12.10" departSpeed="0.00" departDelay="0.82" arrival="142.00" arrivalLane="-124861803#3_0" arrivalPos="15.84" arrivalSpeed="8.26" duration="92.00" routeLength="1114.23" waitingTime="0.00" waitingCount="0" stopTime="0.00" timeLoss="43.85" rerouteNo="1" devices="tripinfo_bus5 routing_bus5" vType="bus_bus" speedFactor="1.00" vaporized=""/>
    <tripinfo id="veh16" depart="48.00" departLane="124858284#2_0" departPos="5.10" departSpeed="0.00" departDelay="0.56" arrival="143.00" arrivalLane="-1303443733_0" arrivalPos="20.40" arrivalSpeed="9.99" duration="95.00" routeLength="1153.29" waitingTime="1.00" waitingCount="1" stopTime="0.00" timeLoss="25.76" rerouteNo="1" devices="tripinfo_veh16 routing_veh16" vType="veh_passenger" speedFactor="1.01" vaporized=""/>
    <tripinfo id="veh21" depart="63.00" departLane="-214085908#1_0" departPos="5.10" departSpeed="12.80" departDelay="0.74" arrival="145.00" arrivalLane="1126750041#1_0" arrivalPos="70.15" arrivalSpeed="2.47" duration="82.00" routeLength="384.31" waitingTime="4.00" waitingCount="1" stopTime="0.00" timeLoss="25.81" rerouteNo="1" devices="tripinfo_veh21 routing_veh21" vType="veh_passenger" speedFactor="0.92" vaporized=""/>
    <tripinfo id="motorcycle35" depart="104.00" departLane="214085922#3_0" departPos="2.30" departSpeed="0.00" departDelay="0.23" arrival="146.00" arrivalLane="1303633133_0" arrivalPos="16.45" arrivalSpeed="12.35" duration="42.00" routeLength="414.80" waitingTime="0.00" waitingCount="0" stopTime="0.00" timeLoss="8.78" rerouteNo="1" devices="tripinfo_motorcycle35 routing_motorcycle35" vType="motorcycle_motorcycle" speedFactor="0.90" vaporized=""/>
    <tripinfo id="veh22" depart="66.00" departLane="124861803#0_0" departPos="5.10" departSpeed="15.15" departDelay="0.77" arrival="147.00" arrivalLane="665546552_0" arrivalPos="42.23" arrivalSpeed="14.48" duration="81.00" routeLength="728.29" waitingTime="10.00" waitingCount="2" stopTime="0.00" timeLoss="30.80" rerouteNo="1" devices="tripinfo_veh22 routing_veh22" vType="veh_passenger" speedFactor="1.09" vaporized=""/>
    <tripinfo id="motorcycle39" depart="118.00" departLane="-124861823#1_0" departPos="2.30" departSpeed="0.00" departDelay="2.37" arrival="148.00" arrivalLane="1187806250_0" arrivalPos="10.24" arrivalSpeed="10.98" duration="30.00" routeLength="289.74" waitingTime="0.00" waitingCount="0" stopTime="0.00" timeLoss="9.23" rerouteNo="1" devices="tripinfo_motorcycle39 routing_motorcycle39" vType="motorcycle_motorcycle" speedFactor="1.04" vaporized=""/>
    <tripinfo id="truck4" depart="40.00" departLane="-317349751#2_0" departPos="2.16" departSpeed="0.00" departDelay="0.47" arrival="151.00" arrivalLane="439133784#1_0" arrivalPos="44.97" arrivalSpeed="11.20" duration="111.00" routeLength="827.06" waitingTime="0.00" waitingCount="0" stopTime="0.00" timeLoss="24.55" rerouteNo="1" devices="tripinfo_truck4 routing_truck4" vType="truck_truck" speedFactor="0.87" vaporized=""/>
    <tripinfo id="bus7" depart="70.00" departLane="214085922#6_0" departPos="12.10" departSpeed="0.00" departDelay="1.15" arrival="152.00" arrivalLane="124861817#5_0" arrivalPos="69.48" arrivalSpeed="11.93" duration="82.00" routeLength="1049.63" waitingTime="0.00" waitingCount="0" stopTime="0.00" timeLoss="32.80" rerouteNo="1" devices="tripinfo_bus7 routing_bus7" vType="bus_bus" speedFactor="1.00" vaporized=""/>
    <tripinfo id="motorcycle31" depart="92.00" departLane="-317349751#6_0" departPos="2.30" departSpeed="14.16" departDelay="0.09" arrival="153.00" arrivalLane="1265177026#0_0" arrivalPos="18.44" arrivalSpeed="14.11" duration="61.00" routeLength="820.42" waitingTime="0.00" waitingCount="0" stopTime="0.00" timeLoss="14.20" rerouteNo="1" devices="tripinfo_motorcycle31 routing_motorcycle31" vType="motorcycle_motorcycle" speedFactor="1.02" vaporized=""/>
    <tripinfo id="veh36" depart="107.00" departLane="-124861817#5_0" departPos="5.10" departSpeed="14.79" departDelay="0.26" arrival="153.00" arrivalLane="-124861823#3_0" arrivalPos="47.65" arrivalSpeed="13.78" duration="46.00" routeLength="601.14" waitingTime="0.00" waitingCount="0" stopTime="0.00" timeLoss="16.84" rerouteNo="1" devices="tripinfo_veh36 routing_veh36" vType="veh_passenger" speedFactor="1.06" vaporized=""/>
    <tripinfo id="motorcycle37" depart="111.00" departLane="725363522#0_0" departPos="2.30" departSpeed="0.00" departDelay="1.30" arrival="154.00" arrivalLane="-214085922#4_0" arrivalPos="42.55" arrivalSpeed="20.77" duration="43.00" routeLength="470.07" waitingTime="0.00" waitingCount="0" stopTime="0.00" timeLoss="9.24" rerouteNo="1" devices="tripinfo_motorcycle37 routing_motorcycle37" vType="motorcycle_motorcycle" speedFactor="0.96" vaporized=""/>
    <tripinfo id="truck5" depart="50.00" departLane="-1107662879_0" departPos="7.20" departSpeed="0.00" departDelay="0.58" arrival="154.00" arrivalLane="1238879358#1_0" arrivalPos="42.04" arrivalSpeed="11.07" duration="104.00" routeLength="883.07" waitingTime="1.00" waitingCount="1" stopTime="0.00" timeLoss="53.17" rerouteNo="1" devices="tripinfo_truck5 routing_truck5" vType="truck_truck" speedFactor="1.07" vaporized=""/>
    <tripinfo id="veh27" depart="81.00" departLane="-1265177026#0_0" departPos="5.10" departSpeed="0.00" departDelay="0.95" arrival="156.00" arrivalLane="1171539007_0" arrivalPos="1.11" arrivalSpeed="8.78" duration="75.00" routeLength="909.50" waitingTime="0.00" waitingCount="0" stopTime="0.00" timeLoss="28.68" rerouteNo="1" devices="tripinfo_veh27 routing_veh27" vType="veh_passenger" speedFactor="1.10" vaporized=""/>
    <tripinfo id="bus2" depart="23.00" departLane="317349751#4_0" departPos="12.10" departSpeed="0.00" departDelay="3.33" arrival="160.00" arrivalLane="-124861803#0_0" arrivalPos="138.83" arrivalSpeed="13.54" duration="137.00" routeLength="1035.94" waitingTime="9.00" waitingCount="3" stopTime="0.00" timeLoss="59.56" rerouteNo="1" devices="tripinfo_bus2 routing_bus2" vType="bus_bus" speedFactor="1.00" vaporized=""/>
    <tripinfo id="motorcycle25" depart="75.00" departLane="124861824#0_0" departPos="2.30" departSpeed="0.00" departDelay="0.88" arrival="164.00" arrivalLane="788485782#3_0" arrivalPos="87.36" arrivalSpeed="11.83" duration="89.00" routeLength="882.76" waitingTime="1.00" waitingCount="1" stopTime="0.00" timeLoss="18.18" rerouteNo="1" devices="tripinfo_motorcycle25 routing_motorcycle25" vType="motorcycle_motorcycle" speedFactor="0.93" vaporized=""/>