<?xml version="1.0" encoding="UTF-8"?>

<!-- generated on 2025-11-02 05:54:16 by Eclipse SUMO sumo Version 1.24.0
<sumoConfiguration xmlns:xsi="http://www.w3.org/2001/XMLSchema-instance" xsi:noNamespaceSchemaLocation="http://sumo.dlr.de/xsd/sumoConfiguration.xsd">

    <input>
        <net-file value="/app/Berlin/osm.net.xml.gz"/>
        <route-files value="/app/Berlin/osm_pt.rou.xml,/app/Berlin/osm.bus.trips.xml,/app/Berlin/osm.motorcycle.trips.xml,/app/Berlin/osm.passenger.trips.xml,/app/Berlin/osm.truck.trips.xml"/>
        <additional-files value="/app/Berlin/osm.poly.xml.gz,/app/Berlin/osm_stops.add.xml,/app/Berlin/output.add.xml"/>
    </input>

    <output>
        <tripinfo-output value="/app/Berlin/tripinfos.xml"/>
        <stop-output value="/app/Berlin/stopinfos.xml"/>
        <statistic-output value="/app/Berlin/stats.xml"/>
    </output>

    <time>
        <step-length value="1"/>
    </time>

    <processing>
        <ignore-route-errors value="true"/>
        <tls.actuated.jam-threshold value="30"/>
    </processing>

    <routing>
        <device.rerouting.adaptation-steps value="18"/>
        <device.rerouting.adaptation-interval value="10"/>
    </routing>

    <report>
        <verbose value="true"/>
        <no-warnings value="true"/>
        <duration-log.statistics value="true"/>
        <no-step-log value="true"/>
    </report>

    <traci_server>
        <remote-port value="44919"/>
    </traci_server>

    <gui_only>
        <gui-settings-file value="/app/Berlin/osm.view.xml"/>
    </gui_only>

</sumoConfiguration>
-->

<tripinfos xmlns:xsi="http://www.w3.org/2001/XMLSchema-instance" xsi:noNamespaceSchemaLocation="http://sumo.dlr.de/xsd/tripinfo_file.xsd">
    <tripinfo id="motorcycle9" depart="43.00" departLane="1133992729#4_0" departPos="0.20" departSpeed="0.00" departDelay="0.12" arrival="95.00" arrivalLane="1133992722_0" arrivalPos="0.20" arrivalSpeed="7.50" duration="52.00" routeLength="403.20" waitingTime="0.00" waitingCount="0" stopTime="0.00" timeLoss="8.31" rerouteNo="1" devices="tripinfo_motorcycle9 routing_motorcycle9" vType="motorcycle_motorcycle" speedFactor="1.12" vaporized=""/>
    <tripinfo id="pt_bus_200:1.0" depart="17.00" departLane="112128418#0_0" departPos="12.10" departSpeed="0.00" departDelay="0.00" arrival="96.00" arrivalLane="295445243_0" arrivalPos="70.56" arrivalSpeed="13.72" duration="79.00" routeLength="379.18" waitingTime="0.00" waitingCount="0" stopTime="30.00" timeLoss="20.39" rerouteNo="0" devices="tripinfo_pt_bus_200:1.0" vType="pt_bus" speedFactor="1.00" vaporized=""/>
    <tripinfo id="pt_bus_200:0.0" depart="15.00" departLane="4613112_0" departPos="5.79" departSpeed="0.00" departDelay="0.00" arrival="100.00" arrivalLane="24914141#1_0" arrivalPos="134.20" arrivalSpeed="13.52" duration="85.00" routeLength="416.18" waitingTime="1.00" waitingCount="1" stopTime="31.00" timeLoss="22.65" rerouteNo="0" devices="tripinfo_pt_bus_200:0.0" vType="pt_bus" speedFactor="1.00" vaporized=""/>
    <tripinfo id="veh3" depart="10.00" departLane="-1397609462_0" departPos="5.10" departSpeed="7.08" departDelay="0.47" arrival="110.00" arrivalLane="-1024034687#2_0" arrivalPos="0.41" arrivalSpeed="6.58" duration="100.00" routeLength="627.55" waitingTime="0.00" waitingCount="0" stopTime="0.00" timeLoss="10.19" rerouteNo="1" devices="tripinfo_veh3 routing_veh3" vType="veh_passenger" speedFactor="0.85" vaporized=""/>
    <tripinfo id="veh7" depart="23.00" departLane="268002748#0_0" departPos="0.20" departSpeed="0.00" departDelay="0.77" arrival="138.00" arrivalLane="-717177007#0_0" arrivalPos="11.16" arrivalSpeed="8.81" duration="115.00" routeLength="764.90" waitingTime="14.00" waitingCount="2" stopTime="0.00" timeLoss="30.34" rerouteNo="1" devices="tripinfo_veh7 routing_veh7" vType="veh_passenger" speedFactor="1.10" vaporized=""/>
    <tripinfo id="truck1" depart="10.00" departLane="-1133992729#1_0" departPos="7.20" departSpeed="0.00" departDelay="0.47" arrival="144.00" arrivalLane="-1024034687#2_0" arrivalPos="0.41" arrivalSpeed="7.26" duration="134.00" routeLength="978.79" waitingTime="2.00" waitingCount="1" stopTime="0.00" timeLoss="21.57" rerouteNo="1" devices="tripinfo_truck1 routing_truck1" vType="truck_truck" speedFactor="0.92" vaporized=""/>
    <tripinfo id="veh10" depart="32.00" departLane="184429424#7_0" departPos="4.89" departSpeed="0.00" departDelay="0.24" arrival="148.00" arrivalLane="8149654#1_0" arrivalPos="7.28" arrivalSpeed="7.32" duration="116.00" routeLength="826.56" waitingTime="0.00" waitingCount="0" stopTime="0.00" timeLoss="12.27" rerouteNo="1" devices="tripinfo_veh10 routing_veh10" vType="veh_passenger" speedFactor="0.90" vaporized=""/>
    <tripinfo id="bus0" depart="0.00" departLane="-373389574#4_0" departPos="9.43" departSpeed="0.00" departDelay="0.00" arrival="150.00" arrivalLane="-24684997#0_0" arrivalPos="28.96" arrivalSpeed="7.86" duration="150.00" routeLength="1169.04" waitingTime="0.00" waitingCount="0" stopTime="0.00" timeLoss="17.58" rerouteNo="1" devices="tripinfo_bus0 routing_bus0" vType="bus_bus" speedFactor="1.00" vaporized=""/>
    <tripinfo id="truck3" depart="29.00" departLane="-4613299#2_0" departPos="7.20" departSpeed="0.00" departDelay="0.41" arrival="153.00" arrivalLane="31145647#2_1" arrivalPos="128.72" arrivalSpeed="14.43" duration="124.00" routeLength="1239.49" waitingTime="0.00" waitingCount="0" stopTime="0.00" timeLoss="19.47" rerouteNo="1" devices="tripinfo_truck3 routing_truck3" vType="truck_truck" speedFactor="1.05" vaporized=""/>
    <tripinfo id="motorcycle0" depart="0.00" departLane="-1052758758#0_0" departPos="2.30" departSpeed="0.00" departDelay="0.00" arrival="156.00" arrivalLane="267542609#1_0" arrivalPos="5.45" arrivalSpeed="6.58" duration="156.00" routeLength="1090.15" waitingTime="0.00" waitingCount="0" stopTime="0.00" timeLoss="30.52" rerouteNo="1" devices="tripinfo_motorcycle0 routing_motorcycle0" vType="motorcycle_motorcycle" speedFactor="1.06" vaporized=""/>
    <tripinfo id="veh4" depart="13.00" departLane="-182690326#8_0" departPos="5.10" departSpeed="0.00" departDelay="0.29" arrival="156.00" arrivalLane="1151940479_0" arrivalPos="21.59" arrivalSpeed="6.71" duration="143.00" routeLength="970.22" waitingTime="0.00" waitingCount="0" stopTime="0.00" timeLoss="15.91" rerouteNo="1" devices="tripinfo_veh4 routing_veh4" vType="veh_passenger" speedFactor="0.85" vaporized=""/>
    <tripinfo id="motorcycle23" depart="110.00" departLane="-184430983#3_0" departPos="2.12" departSpeed="7.90" departDelay="0.41" arrival="159.00" arrivalLane="147657122#3_0" arrivalPos="10.95" arrivalSpeed="6.57" duration="49.00" routeLength="313.94" waitingTime="0.00" waitingCount="0" stopTime="0.00" timeLoss="9.05" rerouteNo="1" devices="tripinfo_motorcycle23 routing_motorcycle23" vType="motorcycle_motorcycle" speedFactor="0.95" vaporized=""/>
    <tripinfo id="truck0" depart="0.00" departLane="-1139102398#1_0" departPos="6.38" departSpeed="0.00" departDelay="0.00" arrival="160.00" arrivalLane="-4613293#0_0" arrivalPos="89.11" arrivalSpeed="8.21" duration="160.00" routeLength="1178.23" waitingTime="15.00" waitingCount="1" stopTime="0.00" timeLoss="35.66" rerouteNo="1" devices="tripinfo_truck0 routing_truck0" vType="truck_truck" speedFactor="1.02" vaporized=""/>
    <tripinfo id="veh17" depart="54.00" departLane="24684997#1_0" departPos="5.10" departSpeed="0.00" departDelay="0.00" arrival="163.00" arrivalLane="-717177007#14_0" arrivalPos="23.01" arrivalSpeed="7.48" duration="109.00" routeLength="815.44" waitingTime="0.00" waitingCount="0" stopTime="0.00" timeLoss="14.24" rerouteNo="1" devices="tripinfo_veh17 routing_veh17" vType="veh_passenger" speedFactor="0.99" vaporized=""/>
    <tripinfo id="motorcycle1" depart="5.00" departLane="-147657122#4_0" departPos="2.30" departSpeed="0.00" departDelay="0.24" arrival="167.00" arrivalLane="1098856683#3_0" arrivalPos="31.95" arrivalSpeed="7.25" duration="162.00" routeLength="1050.18" waitingTime="0.00" waitingCount="0" stopTime="0.00" timeLoss="31.67" rerouteNo="1" devices="tripinfo_motorcycle1 routing_motorcycle1" vType="motorcycle_motorcycle" speedFactor="0.94" vaporized=""/>
    <tripinfo id="motorcycle12" depart="58.00" departLane="-8149654#8_0" departPos="2.30" departSpeed="0.00" departDelay="0.82" arrival="173.00" arrivalLane="-1095407474#2_0" arrivalPos="34.88" arrivalSpeed="4.70" duration="115.00" routeLength="829.62" waitingTime="6.00" waitingCount="1" stopTime="0.00" timeLoss="27.66" rerouteNo="1" devices="tripinfo_motorcycle12 routing_motorcycle12" vType="motorcycle_motorcycle" speedFactor="0.88" vaporized=""/>
    <tripinfo id="motorcycle8" depart="39.00" departLane="-8149654#7_0" departPos="2.30" departSpeed="0.00" departDelay="0.88" arrival="174.00" arrivalLane="-1140689523#2_0" arrivalPos="0.20" arrivalSpeed="8.05" duration="135.00" routeLength="985.04" waitingTime="5.00" waitingCount="1" stopTime="0.00" timeLoss="27.96" rerouteNo="1" devices="tripinfo_motorcycle8 routing_motorcycle8" vType="motorcycle_motorcycle" speedFactor="1.05" vaporized=""/>
    <tripinfo id="veh16" depart="51.00" departLane="309300321_4" departPos="5.10" departSpeed="0.00" departDelay="0.18" arrival="174.00" arrivalLane="312651884#2_0" arrivalPos="112.81" arrivalSpeed="8.23" duration="123.00" routeLength="885.59" waitingTime="4.00" waitingCount="1" stopTime="0.00" timeLoss="19.95" rerouteNo="1" devices="tripinfo_veh16 routing_veh16" vType="veh_passenger" speedFactor="1.02" vaporized=""/>
    <tripinfo id="veh12" depart="39.00" departLane="1133761609#0_0" departPos="5.10" departSpeed="0.00" departDelay="0.88" arrival="179.00" arrivalLane="598692947#1_0" arrivalPos="12.93" arrivalSpeed="14.10" duration="140.00" routeLength="1007.19" waitingTime="3.00" waitingCount="1" stopTime="0.00" timeLoss="29.40" rerouteNo="1" devices="tripinfo_veh12 routing_veh12" vType="veh_passenger" speedFactor="1.02" vaporized=""/>
    <tripinfo id="veh0" depart="0.00" departLane="1098856714#3_0" departPos="5.10" departSpeed="0.00" departDelay="0.00" arrival="183.00" arrivalLane="1373064823#0_0" arrivalPos="116.13" arrivalSpeed="13.13" duration="183.00" routeLength="1538.30" waitingTime="3.00" waitingCount="1" stopTime="0.00" timeLoss="26.18" rerouteNo="1" devices="tripinfo_veh0 routing_veh0" vType="veh_passenger" speedFactor="1.01" vaporized=""/>
    <tripinfo id="veh14" depart="45.00" departLane="25558788#0_1" departPos="5.10" departSpeed="15.04" departDelay="0.53" arrival="186.00" arrivalLane="4296469#2_0" arrivalPos="15.62" arrivalSpeed="8.71" duration="141.00" routeLength="1361.76" waitingTime="7.00" waitingCount="2" stopTime="0.00" timeLoss="25.42" rerouteNo="1" devices="tripinfo_veh14 routing_veh14" vType="veh_passenger" speedFactor="1.08" vaporized=""/>
    <tripinfo id="veh6" depart="20.00" departLane="1052675176#5_0" departPos="5.10" departSpeed="0.00" departDelay="0.94" arrival="187.00" arrivalLane="1095165529_0" arrivalPos="0.20" arrivalSpeed="7.39" duration="167.00" routeLength="1229.99" waitingTime="5.00" waitingCount="1" stopTime="0.00" timeLoss="30.60" rerouteNo="1" devices="tripinfo_veh6 routing_veh6" vType="veh_passenger" speedFactor="1.02" vaporized=""/>
    <tripinfo id="bus2" depart="39.00" departLane="4613299#0_0" departPos="12.10" departSpeed="0.00" departDelay="0.93" arrival="200.00" arrivalLane="-1122497068_0" arrivalPos="48.28" arrivalSpeed="11.99" duration="161.00" routeLength="1184.29" waitingTime="1.00" waitingCount="1" stopTime="0.00" timeLoss="18.62" rerouteNo="1" devices="tripinfo_bus2 routing_bus2" vType="bus_bus" speedFactor="1.00" vaporized=""/>
    <tripinfo id="veh33" depart="105.00" departLane="-4613293#1_0" departPos="5.10" departSpeed="0.00" departDelay="0.18" arrival="200.00" arrivalLane="268002748#2_0" arrivalPos="9.32" arrivalSpeed="7.81" duration="95.00" routeLength="729.57" waitingTime="0.00" waitingCount="0" stopTime="0.00" timeLoss="12.90" rerouteNo="1" devices="tripinfo_veh33 routing_veh33" vType="veh_passenger" speedFactor="1.09" vaporized=""/>
    <tripinfo id="veh11" depart="35.00" departLane="-1095165529_0" departPos="0.20" departSpeed="0.00" departDelay="0.06" arrival="217.00" arrivalLane="1052675176#5_0" arrivalPos="17.27" arrivalSpeed="9.11" duration="182.00" routeLength="1661.83" waitingTime="0.00" waitingCount="0" stopTime="0.00" timeLoss="21.56" rerouteNo="1" devices="tripinfo_veh11 routing_veh11" vType="veh_passenger" speedFactor="1.14" vaporized=""/>
    <tripinfo id="motorcycle29" depart="139.00" departLane="-1140689523#0_0" departPos="2.30" departSpeed="0.00" departDelay="0.83" arrival="221.00" arrivalLane="-1316026644_0" arrivalPos="50.12" arrivalSpeed="8.35" duration="82.00" routeLength="561.92" waitingTime="10.00" waitingCount="1" stopTime="0.00" timeLoss="31.53" rerouteNo="1" devices="tripinfo_motorcycle29 routing_motorcycle29" vType="motorcycle_motorcycle" speedFactor="1.17" vaporized=""/>
    <tripinfo id="veh45" depart="143.00" departLane="34580834#13_0" departPos="5.10" departSpeed="0.00" departDelay="0.06" arrival="222.00" arrivalLane="-4606218#0_0" arrivalPos="1.67" arrivalSpeed="6.59" duration="79.00" routeLength="505.71" waitingTime="0.00" waitingCount="0" stopTime="0.00" timeLoss="9.17" rerouteNo="1" devices="tripinfo_veh45 routing_veh45" vType="veh_passenger" speedFactor="0.89" vaporized=""/>
    <tripinfo id="motorcycle6" depart="29.00" departLane="1052757284#0_0" departPos="2.30" departSpeed="0.00" departDelay="0.41" arrival="223.00" arrivalLane="-184077630#12_0" arrivalPos="9.50" arrivalSpeed="7.72" duration="194.00" routeLength="1502.80" waitingTime="0.00" waitingCount="0" stopTime="0.00" timeLoss="38.74" rerouteNo="1" devices="tripinfo_motorcycle6 routing_motorcycle6" vType="motorcycle_motorcycle" speedFactor="1.09" vaporized=""/>
    <tripinfo id="motorcycle15" depart="72.00" departLane="4613300#5_0" departPos="2.30" departSpeed="0.00" departDelay="0.53" arrival="223.00" arrivalLane="1138696720#0_0" arrivalPos="10.57" arrivalSpeed="7.97" duration="151.00" routeLength="1188.32" waitingTime="16.00" waitingCount="1" stopTime="0.00" timeLoss="39.98" rerouteNo="1" devices="tripinfo_motorcycle15 routing_motorcycle15" vType="motorcycle_motorcycle" speedFactor="1.16" vaporized=""/>
    <tripinfo id="motorcycle24" depart="115.00" departLane="8149654#2_0" departPos="0.20" departSpeed="0.00" departDelay="0.65" arrival="223.00" arrivalLane="1151940481#0_0" arrivalPos="14.34" arrivalSpeed="6.61" duration="108.00" routeLength="775.38" waitingTime="0.00" waitingCount="0" stopTime="0.00" timeLoss="25.52" rerouteNo="1" devices="tripinfo_motorcycle24 routing_motorcycle24" vType="motorcycle_motorcycle" speedFactor="1.13" vaporized=""/>
    <tripinfo id="veh8" depart="26.00" departLane="184077630#12_0" departPos="5.10" departSpeed="0.00" departDelay="0.59" arrival="232.00" arrivalLane="-1152640372#5_0" arrivalPos="28.31" arrivalSpeed="2.56" duration="206.00" routeLength="1461.66" waitingTime="5.00" waitingCount="2" stopTime="0.00" timeLoss="38.72" rerouteNo="1" devices="tripinfo_veh8 routing_veh8" vType="veh_passenger" speedFactor="1.00" vaporized=""/>
    <tripinfo id="veh43" depart="137.00" departLane="-1139102398#3_0" departPos="5.10" departSpeed="0.00" departDelay="0.42" arrival="232.00" arrivalLane="1104460750_1" arrivalPos="21.45" arrivalSpeed="13.79" duration="95.00" routeLength="830.22" waitingTime="0.00" waitingCount="0" stopTime="0.00" timeLoss="11.77" rerouteNo="1" devices="tripinfo_veh43 routing_veh43" vType="veh_passenger" speedFactor="1.02" vaporized=""/>
    <tripinfo id="motorcycle33" depart="158.00" departLane="1095165548#0_0" departPos="2.30" departSpeed="0.00" departDelay="0.77" arrival="233.00" arrivalLane="-1052756578#1_0" arrivalPos="32.17" arrivalSpeed="8.02" duration="75.00" routeLength="773.63" waitingTime="0.00" waitingCount="0" stopTime="0.00" timeLoss="11.37" rerouteNo="1" devices="tripinfo_motorcycle33 routing_motorcycle33" vType="motorcycle_motorcycle" speedFactor="1.18" vaporized=""/>
    <tripinfo id="veh39" depart="124.00" departLane="-4790879#1_0" departPos="5.10" departSpeed="0.00" departDelay="0.12" arrival="245.00" arrivalLane="1094434971_0" arrivalPos="37.44" arrivalSpeed="12.62" duration="121.00" routeLength="849.32" waitingTime="1.00" waitingCount="1" stopTime="0.00" timeLoss="18.89" rerouteNo="1" devices="tripinfo_veh39 routing_veh39" vType="veh_passenger" speedFactor="0.98" vaporized=""/>
    <tripinfo id="motorcycle30" depart="143.00" departLane="-1140760605#1_1" departPos="2.30" departSpeed="0.00" departDelay="0.06" arrival="249.00" arrivalLane="23294727#0_0" arrivalPos="1.09" arrivalSpeed="7.00" duration="106.00" routeLength="926.33" waitingTime="0.00" waitingCount="0" stopTime="0.00" timeLoss="16.55" rerouteNo="1" devices="tripinfo_motorcycle30 routing_motorcycle30" vType="motorcycle_motorcycle" speedFactor="0.99" vaporized=""/>
    <tripinfo id="motorcycle16" depart="77.00" departLane="-1157111072_0" departPos="2.30" departSpeed="8.48" departDelay="0.77" arrival="250.00" arrivalLane="4610356_0" arrivalPos="38.91" arrivalSpeed="6.01" duration="173.00" routeLength="1152.44" waitingTime="5.00" waitingCount="1" stopTime="0.00" timeLoss="36.74" rerouteNo="1" devices="tripinfo_motorcycle16 routing_motorcycle16" vType="motorcycle_motorcycle" speedFactor="1.02" vaporized=""/>
    <tripinfo id="veh47" depart="150.00" departLane="-373389574#0_0" departPos="5.10" departSpeed="0.00" departDelay="0.71" arrival="252.00" arrivalLane="295445243_0" arrivalPos="70.56" arrivalSpeed="11.53" duration="102.00" routeLength="840.98" waitingTime="1.00" waitingCount="1" stopTime="0.00" timeLoss="15.78" rerouteNo="1" devices="tripinfo_veh47 routing_veh47" vType="veh_passenger" speedFactor="0.92" vaporized=""/>
    <tripinfo id="motorcycle3" depart="15.00" departLane="1098856696_0" departPos="2.30" departSpeed="0.00" departDelay="0.71" arrival="254.00" arrivalLane="1133992724#0_0" arrivalPos="40.11" arrivalSpeed="6.96" duration="239.00" routeLength="1370.57" waitingTime="23.00" waitingCount="2" stopTime="0.00" timeLoss="73.06" rerouteNo="1" devices="tripinfo_motorcycle3 routing_motorcycle3" vType="motorcycle_motorcycle" speedFactor="0.89" vaporized=""/>
    <tripinfo id="motorcycle49" depart="234.00" departLane="1133992729#12_0" departPos="2.30" departSpeed="0.00" departDelay="0.54" arrival="262.00" arrivalLane="59546763_0" arrivalPos="13.20" arrivalSpeed="6.44" duration="28.00" routeLength="190.37" waitingTime="0.00" waitingCount="0" stopTime="0.00" timeLoss="5.22" rerouteNo="1" devices="tripinfo_motorcycle49 routing_motorcycle49" vType="motorcycle_motorcycle" speedFactor="1.02" vaporized=""/>
    <tripinfo id="bus3" depart="58.00" departLane="-268002748#1_0" departPos="2.52" departSpeed="0.00" departDelay="0.90" arrival="264.00" arrivalLane="1133992722_0" arrivalPos="0.20" arrivalSpeed="6.99" duration="206.00" routeLength="1398.26" waitingTime="6.00" waitingCount="2" stopTime="0.00" timeLoss="52.54" rerouteNo="1" devices="tripinfo_bus3 routing_bus3" vType="bus_bus" speedFactor="1.00" vaporized=""/>
    <tripinfo id="truck5" depart="48.00" departLane="4606258#1_0" departPos="3.42" departSpeed="0.00" departDelay="0.35" arrival="264.00" arrivalLane="268002743#0_0" arrivalPos="12.16" arrivalSpeed="7.11" duration="216.00" routeLength="1536.55" waitingTime="11.00" waitingCount="1" stopTime="0.00" timeLoss="53.81" rerouteNo="1" devices="tripinfo_truck5 routing_truck5" vType="truck_truck" speedFactor="1.05" vaporized=""/>
    <tripinfo id="motorcycle13" depart="62.00" departLane="-1122497068_0" departPos="2.30" departSpeed="0.00" departDelay="0.06" arrival="265.00" arrivalLane="717177007#4_0" arrivalPos="8.33" arrivalSpeed="6.54" duration="203.00" routeLength="1253.68" waitingTime="0.00" waitingCount="0" stopTime="0.00" timeLoss="44.85" rerouteNo="1" devices="tripinfo_motorcycle13 routing_motorcycle13" vType="motorcycle_motorcycle" speedFactor="0.94" vaporized=""/>
    <tripinfo id="veh32" depart="102.00" departLane="-4613287_0" departPos="0.20" departSpeed="0.00" departDelay="0.36" arrival="267.00" arrivalLane="-1024034687#0_0" arrivalPos="0.18" arrivalSpeed="8.04" duration="165.00" routeLength="1086.32" waitingTime="17.00" waitingCount="1" stopTime="0.00" timeLoss="33.50" rerouteNo="1" devices="tripinfo_veh32 routing_veh32" vType="veh_passenger" speedFactor="1.01" vaporized=""/>
    <tripinfo id="motorcycle42" depart="201.00" departLane="1316026644_0" departPos="2.30" departSpeed="0.00" departDelay="0.89" arrival="270.00" arrivalLane="-34580834#13_0" arrivalPos="31.34" arrivalSpeed="6.02" duration="69.00" routeLength="458.18" waitingTime="0.00" waitingCount="0" stopTime="0.00" timeLoss="12.66" rerouteNo="1" devices="tripinfo_motorcycle42 routing_motorcycle42" vType="motorcycle_motorcycle" speedFactor="1.00" vaporized=""/>
    <tripinfo id="motorcycle17" depart="81.00" departLane="1344278031#1_1" departPos="2.30" departSpeed="0.00" departDelay="0.00" arrival="275.00" arrivalLane="717177006#2_0" arrivalPos="5.19" arrivalSpeed="8.12" duration="194.00" routeLength="1083.90" waitingTime="36.00" waitingCount="3" stopTime="0.00" timeLoss="72.64" rerouteNo="1" devices="tripinfo_motorcycle17 routing_motorcycle17" vType="motorcycle_motorcycle" speedFactor="1.01" vaporized=""/>
    <tripinfo id="bus4" depart="77.00" departLane="-1052675228_0" departPos="12.10" departSpeed="0.00" departDelay="0.86" arrival="277.00" arrivalLane="-184077630#9_0" arrivalPos="0.20" arrivalSpeed="8.33" duration="200.00" routeLength="1512.79" waitingTime="2.00" waitingCount="1" stopTime="0.00" timeLoss="28.29" rerouteNo="1" devices="tripinfo_bus4 routing_bus4" vType="bus_bus" speedFactor="1.00" vaporized=""/>
    <tripinfo id="veh61" depart="194.00" departLane="1138687771_0" departPos="5.10" departSpeed="8.62" departDelay="0.24" arrival="282.00" arrivalLane="24326506#2_1" arrivalPos="14.30" arrivalSpeed="13.00" duration="88.00" routeLength="606.39" waitingTime="5.00" waitingCount="1" stopTime="0.00" timeLoss="18.72" rerouteNo="1" devices="tripinfo_veh61 routing_veh61" vType="veh_passenger" speedFactor="1.03" vaporized=""/>
    <tripinfo id="veh40" depart="128.00" departLane="1158223859#1_0" departPos="5.10" departSpeed="0.00" departDelay="0.94" arrival="284.00" arrivalLane="717177007#14_0" arrivalPos="23.01" arrivalSpeed="8.12" duration="156.00" routeLength="1095.96" waitingTime="2.00" waitingCount="1" stopTime="0.00" timeLoss="28.23" rerouteNo="1" devices="tripinfo_veh40 routing_veh40" vType="veh_passenger" speedFactor="1.00" vaporized=""/>
    <tripinfo id="veh67" depart="213.00" departLane="4484427#0_1" departPos="5.10" departSpeed="0.00" departDelay="0.18" arrival="286.00" arrivalLane="-1052675176#0_0" arrivalPos="15.35" arrivalSpeed="8.63" duration="73.00" routeLength="552.39" waitingTime="0.00" waitingCount="0" stopTime="0.00" timeLoss="18.72" rerouteNo="1" devices="tripinfo_veh67 routing_veh67" vType="veh_passenger" speedFactor="1.09" vaporized=""/>
    <tripinfo id="veh68" depart="216.00" departLane="390614076#3_0" departPos="5.10" departSpeed="0.00" departDelay="0.01" arrival="286.00" arrivalLane="-1158223859#1_0" arrivalPos="5.78" arrivalSpeed="7.61" duration="70.00" routeLength="632.96" waitingTime="0.00" waitingCount="0" stopTime="0.00" timeLoss="9.42" rerouteNo="1" devices="tripinfo_veh68 routing_veh68" vType="veh_passenger" speedFactor="1.03" vaporized=""/>
    <tripinfo id="truck21" depart="201.00" departLane="-1151940480_0" departPos="7.20" departSpeed="8.46" departDelay="0.89" arrival="290.00" arrivalLane="154046793_0" arrivalPos="46.50" arrivalSpeed="8.22" duration="89.00" routeLength="738.14" waitingTime="0.00" waitingCount="0" stopTime="0.00" timeLoss="6.28" rerouteNo="1" devices="tripinfo_truck21 routing_truck21" vType="truck_truck" speedFactor="1.02" vaporized=""/>
    <tripinfo id="veh70" depart="223.00" departLane="1101404966#0_0" departPos="5.10" departSpeed="0.00" departDelay="0.65" arrival="293.00" arrivalLane="717177007#12_0" arrivalPos="10.29" arrivalSpeed="8.36" duration="70.00" routeLength="518.53" waitingTime="2.00" waitingCount="1" stopTime="0.00" timeLoss="11.09" rerouteNo="1" devices="tripinfo_veh70 routing_veh70" vType="veh_passenger" speedFactor="1.06" vaporized=""/>
    <tripinfo id="truck7" depart="67.00" departLane="25134073_0" departPos="7.20" departSpeed="7.75" departDelay="0.30" arrival="294.00" arrivalLane="598692947#2_0" arrivalPos="62.10" arrivalSpeed="14.77" duration="227.00" routeLength="1932.96" waitingTime="0.00" waitingCount="0" stopTime="0.00" timeLoss="32.55" rerouteNo="1" devices="tripinfo_truck7 routing_truck7" vType="truck_truck" speedFactor="1.09" vaporized=""/>
    <tripinfo id="motorcycle31" depart="148.00" departLane="-16571799#6_0" departPos="2.30" departSpeed="0.00" departDelay="0.30" arrival="298.00" arrivalLane="4296469#0_0" arrivalPos="27.55" arrivalSpeed="6.57" duration="150.00" routeLength="1025.57" waitingTime="0.00" waitingCount="0" stopTime="0.00" timeLoss="27.88" rerouteNo="1" devices="tripinfo_motorcycle31 routing_motorcycle31" vType="motorcycle_motorcycle" speedFactor="1.02" vaporized=""/>
    <tripinfo id="veh79" depart="251.00" departLane="1052675176#3_0" departPos="5.10" departSpeed="0.00" departDelay="0.07" arrival="298.00" arrivalLane="1121505024#0_0" arrivalPos="54.03" arrivalSpeed="12.91" duration="47.00" routeLength="363.87" waitingTime="0.00" waitingCount="0" stopTime="0.00" timeLoss="8.78" rerouteNo="1" devices="tripinfo_veh79 routing_veh79" vType="veh_passenger" speedFactor="0.97" vaporized=""/>
    <tripinfo id="motorcycle26" depart="124.00" departLane="34580834#8_0" departPos="2.30" departSpeed="0.00" departDelay="0.12" arrival="301.00" arrivalLane="73310499_0" arrivalPos="10.14" arrivalSpeed="8.12" duration="177.00" routeLength="1330.46" waitingTime="0.00" waitingCount="0" stopTime="0.00" timeLoss="40.04" rerouteNo="1" devices="tripinfo_motorcycle26 routing_motorcycle26" vType="motorcycle_motorcycle" speedFactor="1.18" vaporized=""/>
    <tripinfo id="motorcycle41" depart="196.00" departLane="1024034687#1_0" departPos="2.30" departSpeed="0.00" departDelay="0.65" arrival="306.00" arrivalLane="24914109_1" arrivalPos="7.03" arrivalSpeed="10.32" duration="110.00" routeLength="819.08" waitingTime="0.00" waitingCount="0" stopTime="0.00" timeLoss="20.64" rerouteNo="1" devices="tripinfo_motorcycle41 routing_motorcycle41" vType="motorcycle_motorcycle" speedFactor="1.09" vaporized=""/>
    <tripinfo id="truck12" depart="120.00" departLane="390614076#0_0" departPos="7.20" departSpeed="0.00" departDelay="5.65" arrival="306.00" arrivalLane="184077626#2_0" arrivalPos="45.46" arrivalSpeed="8.26" duration="186.00" routeLength="1433.11" waitingTime="1.00" waitingCount="1" stopTime="0.00" timeLoss="37.65" rerouteNo="1" devices="tripinfo_truck12 routing_truck12" vType="truck_truck" speedFactor="1.05" vaporized=""/>
    <tripinfo id="motorcycle40" depart="191.00" departLane="-267542609#4_0" departPos="2.30" departSpeed="0.00" departDelay="0.42" arrival="310.00" arrivalLane="717177007#11_0" arrivalPos="11.66" arrivalSpeed="6.90" duration="119.00" routeLength="827.71" waitingTime="0.00" waitingCount="0" stopTime="0.00" timeLoss="21.66" rerouteNo="1" devices="tripinfo_motorcycle40 routing_motorcycle40" vType="motorcycle_motorcycle" speedFactor="1.04" vaporized=""/>
    <tripinfo id="bus6" depart="115.00" departLane="390614076#0_0" departPos="9.77" departSpeed="0.00" departDelay="0.80" arrival="311.00" arrivalLane="-1024034687#0_0" arrivalPos="0.18" arrivalSpeed="8.02" duration="196.00" routeLength="1526.09" waitingTime="6.00" waitingCount="1" stopTime="0.00" timeLoss="36.19" rerouteNo="1" devices="tripinfo_bus6 routing_bus6" vType="bus_bus" speedFactor="1.00" vaporized=""/>
    <tripinfo id="truck15" depart="143.00" departLane="102984483#1_0" departPos="7.20" departSpeed="0.00" departDelay="0.06" arrival="313.00" arrivalLane="4606218#2_0" arrivalPos="10.02" arrivalSpeed="8.54" duration="170.00" routeLength="1185.72" waitingTime="15.00" waitingCount="1" stopTime="0.00" timeLoss="38.41" rerouteNo="1" devices="tripinfo_truck15 routing_truck15" vType="truck_truck" speedFactor="1.03" vaporized=""/>
    <tripinfo id="veh69" depart="220.00" departLane="690429978#7_0" departPos="5.10" departSpeed="0.00" departDelay="0.83" arrival="313.00" arrivalLane="-180331460_0" arrivalPos="148.73" arrivalSpeed="7.99" duration="93.00" routeLength="797.97" waitingTime="0.00" waitingCount="0" stopTime="0.00" timeLoss="11.74" rerouteNo="1" devices="tripinfo_veh69 routing_veh69" vType="veh_passenger" speedFactor="1.08" vaporized=""/>
    <tripinfo id="veh42" depart="134.00" departLane="717177007#2_0" departPos="5.10" departSpeed="0.00" departDelay="0.59" arrival="314.00" arrivalLane="24968394#0_0" arrivalPos="61.50" arrivalSpeed="13.96" duration="180.00" routeLength="1392.90" waitingTime="6.00" waitingCount="1" stopTime="0.00" timeLoss="28.97" rerouteNo="1" devices="tripinfo_veh42 routing_veh42" vType="veh_passenger" speedFactor="1.01" vaporized=""/>
    <tripinfo id="veh46" depart="147.00" departLane="1141076641#1_0" departPos="0.20" departSpeed="0.00" departDelay="0.89" arrival="314.00" arrivalLane="44427219#0_1" arrivalPos="8.73" arrivalSpeed="6.82" duration="167.00" routeLength="1071.05" waitingTime="1.00" waitingCount="1" stopTime="0.00" timeLoss="30.39" rerouteNo="1" devices="tripinfo_veh46 routing_veh46" vType="veh_passenger" speedFactor="0.83" vaporized=""/>
    <tripinfo id="veh18" depart="58.00" departLane="4606258#0_0" departPos="0.20" departSpeed="7.81" departDelay="0.82" arrival="315.00" arrivalLane="238682696#2_0" arrivalPos="5.37" arrivalSpeed="7.35" duration="257.00" routeLength="1725.15" waitingTime="11.00" waitingCount="3" stopTime="0.00" timeLoss="51.55" rerouteNo="1" devices="tripinfo_veh18 routing_veh18" vType="veh_passenger" speedFactor="0.94" vaporized=""/>